# Projected DOS for atomic kind C at iteration step i = 0, E(Fermi) =    -0.296316 a.u.
#     MO Eigenvalue [a.u.]      Occupation                 s                py                pz                px               d-2               d-1                d0               d+1               d+2
       1        -21.784568        1.000000        0.00020881        0.00000000        0.00107023        0.00000000        0.00000000        0.00000000        0.00106818        0.00000000        0.00000000
       2         -9.945520        1.000000        0.98898069        0.00000000        0.00004291        0.00000000        0.00000001        0.00000000        0.00000011        0.00000000        0.00000000
       3         -1.217810        1.000000        0.13473951        0.00000000        0.15546112        0.00000000        0.00000088        0.00000000        0.03002033        0.00000000        0.00000000
       4         -0.656590        1.000000        0.04896685        0.00000000        0.04017447        0.00000000        0.00000110        0.00000000        0.00066072        0.00000000        0.00000000
       5         -0.565036        1.000000        0.00000000        0.05867075        0.00000000        0.05866954        0.00000000        0.01030471        0.00000000        0.01030450        0.00000000
       6         -0.559403        1.000000        0.00000000        0.05737467        0.00000000        0.05737586        0.00000000        0.01032531        0.00000000        0.01032552        0.00000000
       7         -0.296316        1.000000        0.61005860        0.00000000        0.29753923        0.00000000        0.00001232        0.00000000        0.01030505        0.00000000        0.00000000
       8         -0.080679        0.000000        0.00000000        0.41572620        0.00000000        0.41571782        0.00000000        0.00358206        0.00000000        0.00358199        0.00000000
       9         -0.070228        0.000000        0.00000000        0.41693028        0.00000000        0.41693868        0.00000000        0.00353128        0.00000000        0.00353135        0.00000000
      10          0.221975        0.000000        0.14343539        0.00000000        0.59292741        0.00000000        0.00004214        0.00000000        0.10905962        0.00000000        0.00000000
      11          0.475488        0.000000        0.00000000        0.45596982        0.00000000        0.45597929        0.00000000        0.00223499        0.00000000        0.00223504        0.00000000
      12          0.502034        0.000000        0.00000000        0.45280482        0.00000000        0.45279542        0.00000000        0.00222796        0.00000000        0.00222792        0.00000000
      13          0.563469        0.000000        0.50327616        0.00000000        0.03147376        0.00000000        0.00015370        0.00000000        0.02068253        0.00000000        0.00000000
      14          0.608862        0.000000        0.08834568        0.00000000        0.70159269        0.00000000        0.00000373        0.00000000        0.03398897        0.00000000        0.00000000
      15          0.702954        0.000000        0.00000000        0.03734681        0.00000000        0.03734758        0.00000000        0.00747600        0.00000000        0.00747616        0.00000000
      16          0.705359        0.000000        0.24633204        0.00000000        0.02433539        0.00000000        0.00001952        0.00000000        0.00000892        0.00000000        0.00000000
      17          0.718251        0.000000        0.00000000        0.04029308        0.00000000        0.04029225        0.00000000        0.00705264        0.00000000        0.00705250        0.00000000
      18          1.365036        0.000000        0.06324576        0.00000000        0.02310624        0.00000000        0.00325159        0.00000000        0.00141074        0.00000000        0.00000000
      19          1.430953        0.000000        0.00000000        0.00000000        0.00000000        0.00000000        0.00000000        0.00000000        0.00000000        0.00000000        0.47993163
      20          1.432168        0.000000        0.00068052        0.00000000        0.00018925        0.00000000        0.47679535        0.00000000        0.00003040        0.00000000        0.00000000
      21          1.465458        0.000000        0.00000000        0.01814501        0.00000000        0.01814538        0.00000000        0.23906818        0.00000000        0.23907306        0.00000000
      22          1.494266        0.000000        0.00000000        0.01850977        0.00000000        0.01850939        0.00000000        0.23515201        0.00000000        0.23514721        0.00000000
      23          1.888723        0.000000        0.00000000        0.00000000        0.00000000        0.00000000        0.00000000        0.00000000        0.00000000        0.00000000        0.52006837
      24          1.889365        0.000000        0.00002363        0.00000000        0.00011324        0.00000000        0.51859002        0.00000000        0.00074089        0.00000000        0.00000000
      25          2.280610        0.000000        0.01235076        0.00000000        0.01978375        0.00000000        0.00112828        0.00000000        0.77037679        0.00000000        0.00000000
      26          2.515913        0.000000        0.00000000        0.01422316        0.00000000        0.01422345        0.00000000        0.23735912        0.00000000        0.23736398        0.00000000
      27          2.543774        0.000000        0.00000000        0.01400562        0.00000000        0.01400534        0.00000000        0.24168572        0.00000000        0.24168077        0.00000000
