# Projected DOS for atomic kind C at iteration step i = 0, E(Fermi) =    -0.166486 a.u.
#     MO Eigenvalue [a.u.]      Occupation                 s                py                pz                px               d-2               d-1                d0               d+1               d+2
       1        -18.976634        1.000000        0.00025917        0.00000000        0.00125222        0.00000000        0.00000000        0.00000000        0.00121278        0.00000000        0.00000000
       2        -11.090974        0.000000        0.99000208        0.00000000        0.00003761        0.00000000        0.00000000        0.00000000        0.00000002        0.00000000        0.00000000
       3         -1.198455        1.000000        0.18888727        0.00000000        0.18548290        0.00000000        0.00000006        0.00000000        0.02578075        0.00000000        0.00000000
       4         -0.622003        1.000000        0.08994238        0.00000000        0.04684300        0.00000000        0.00000005        0.00000000        0.00006561        0.00000000        0.00000000
       5         -0.532521        1.000000        0.00000000        0.13330300        0.00000000        0.13330107        0.00000000        0.01028981        0.00000000        0.01028966        0.00000000
       6         -0.531380        1.000000        0.00000000        0.13362358        0.00000000        0.13362551        0.00000000        0.01025976        0.00000000        0.01025991        0.00000000
       7         -0.382384        1.000000        0.50978730        0.00000000        0.38911170        0.00000000        0.00000023        0.00000000        0.00959810        0.00000000        0.00000000
       8         -0.166486        1.000000        0.00000000        0.34576436        0.00000000        0.34576764        0.00000000        0.00593394        0.00000000        0.00593400        0.00000000
       9         -0.166256        0.000000        0.00000000        0.34601127        0.00000000        0.34600799        0.00000000        0.00595103        0.00000000        0.00595098        0.00000000
      10          0.233578        0.000000        0.17645082        0.00000000        0.51338459        0.00000000        0.00000253        0.00000000        0.15086993        0.00000000        0.00000000
      11          0.330041        0.000000        0.00000000        0.48749708        0.00000000        0.48750271        0.00000000        0.00390986        0.00000000        0.00390990        0.00000000
      12          0.332146        0.000000        0.00000000        0.48686907        0.00000000        0.48686345        0.00000000        0.00397581        0.00000000        0.00397577        0.00000000
      13          0.392856        0.000000        0.45223768        0.00000000        0.50952924        0.00000000        0.00000007        0.00000000        0.00373223        0.00000000        0.00000000
      14          0.565649        0.000000        0.36698959        0.00000000        0.19819227        0.00000000        0.00000061        0.00000000        0.04468108        0.00000000        0.00000000
      15          0.867851        0.000000        0.02271436        0.00000000        0.02504046        0.00000000        0.00001283        0.00000000        0.06242300        0.00000000        0.00000000
      16          0.956800        0.000000        0.00000000        0.00876555        0.00000000        0.00876542        0.00000000        0.00141157        0.00000000        0.00141155        0.00000000
      17          0.962704        0.000000        0.00000000        0.00827072        0.00000000        0.00827084        0.00000000        0.00129913        0.00000000        0.00129915        0.00000000
      18          1.351639        0.000000        0.00000000        0.00000000        0.00000000        0.00000000        0.00000000        0.00000000        0.00000000        0.00000000        0.78297016
      19          1.354687        0.000000        0.00003112        0.00000000        0.00000985        0.00000000        0.78068286        0.00000000        0.00000284        0.00000000        0.00000000
      20          1.430003        0.000000        0.00000000        0.01037486        0.00000000        0.01037469        0.00000000        0.30275213        0.00000000        0.30274711        0.00000000
      21          1.440047        0.000000        0.00000000        0.01018481        0.00000000        0.01018497        0.00000000        0.30372012        0.00000000        0.30372514        0.00000000
      22          1.528692        0.000000        0.05048391        0.00000000        0.01976292        0.00000000        0.00039877        0.00000000        0.02052652        0.00000000        0.00000000
      23          1.897705        0.000000        0.00000000        0.00000000        0.00000000        0.00000000        0.00000000        0.00000000        0.00000000        0.00000000        0.21702984
      24          1.899530        0.000000        0.00000738        0.00000000        0.00000150        0.00000000        0.21889597        0.00000000        0.00001428        0.00000000        0.00000000
      25          2.250065        0.000000        0.00814903        0.00000000        0.02923371        0.00000000        0.00000387        0.00000000        0.66915092        0.00000000        0.00000000
      26          2.506909        0.000000        0.00000000        0.01468193        0.00000000        0.01468170        0.00000000        0.17562372        0.00000000        0.17562086        0.00000000
      27          2.514086        0.000000        0.00000000        0.01465378        0.00000000        0.01465402        0.00000000        0.17487312        0.00000000        0.17487597        0.00000000
      28          2.853492        0.000000        0.14405790        0.00000000        0.08211805        0.00000000        0.00000216        0.00000000        0.01194195        0.00000000        0.00000000
