# Projected DOS for atomic kind O at iteration step i = 0, E(Fermi) =    -0.114761 a.u.
#     MO Eigenvalue [a.u.]      Occupation                 s                py                pz                px               d-2               d-1                d0               d+1               d+2
       1        -20.339922        0.000000        0.99744210        0.00000000        0.00001136        0.00000000        0.00000000        0.00000000        0.00000020        0.00000000        0.00000000
       2         -9.962610        1.000000        0.00097229        0.00000000        0.00557951        0.00000000        0.00000000        0.00000000        0.00448185        0.00000000        0.00000000
       3         -1.182391        1.000000        0.56415426        0.00000000        0.08602284        0.00000000        0.00000023        0.00000000        0.00305080        0.00000000        0.00000000
       4         -0.627484        1.000000        0.21578361        0.00000000        0.67696064        0.00000000        0.00000002        0.00000000        0.00617701        0.00000000        0.00000000
       5         -0.542293        1.000000        0.00000000        0.40654318        0.00000000        0.40653474        0.00000000        0.00198108        0.00000000        0.00198104        0.00000000
       6         -0.540683        1.000000        0.00000000        0.40624857        0.00000000        0.40625701        0.00000000        0.00196631        0.00000000        0.00196635        0.00000000
       7         -0.330476        1.000000        0.01974413        0.00000000        0.06980892        0.00000000        0.00000000        0.00000000        0.00060876        0.00000000        0.00000000
       8         -0.114761        1.000000        0.00000000        0.08562097        0.00000000        0.08561407        0.00000000        0.01473477        0.00000000        0.01473358        0.00000000
       9         -0.114686        0.000000        0.00000000        0.08587068        0.00000000        0.08587759        0.00000000        0.01471615        0.00000000        0.01471734        0.00000000
      10          0.216523        0.000000        0.13957062        0.00000000        0.01565159        0.00000000        0.00000044        0.00000000        0.00316547        0.00000000        0.00000000
      11          0.453989        0.000000        0.00000000        0.02208840        0.00000000        0.02208890        0.00000000        0.00909954        0.00000000        0.00909974        0.00000000
      12          0.454163        0.000000        0.00000000        0.02418817        0.00000000        0.02418771        0.00000000        0.00933466        0.00000000        0.00933448        0.00000000
      13          0.550037        0.000000        0.02157729        0.00000000        0.18137324        0.00000000        0.00000044        0.00000000        0.02303406        0.00000000        0.00000000
      14          0.602046        0.000000        0.00292982        0.00000000        0.19100608        0.00000000        0.00000292        0.00000000        0.11372255        0.00000000        0.00000000
      15          0.699559        0.000000        0.06457542        0.00000000        0.59071004        0.00000000        0.00001087        0.00000000        0.16663539        0.00000000        0.00000000
      16          0.726901        0.000000        0.00000000        0.45988688        0.00000000        0.45989603        0.00000000        0.00451993        0.00000000        0.00452002        0.00000000
      17          0.731745        0.000000        0.00000000        0.46185043        0.00000000        0.46184124        0.00000000        0.00485350        0.00000000        0.00485340        0.00000000
      18          1.377462        0.000000        0.69821663        0.00000000        0.01411472        0.00000000        0.01746208        0.00000000        0.16691197        0.00000000        0.00000000
      19          1.395597        0.000000        0.00000000        0.00000000        0.00000000        0.00000000        0.00000000        0.00000000        0.00000000        0.00000000        0.45387605
      20          1.399005        0.000000        0.02546325        0.00000000        0.00063892        0.00000000        0.44002118        0.00000000        0.00641348        0.00000000        0.00000000
      21          1.451141        0.000000        0.00000000        0.00626653        0.00000000        0.00626665        0.00000000        0.23302342        0.00000000        0.23302813        0.00000000
      22          1.461107        0.000000        0.00000000        0.00633658        0.00000000        0.00633646        0.00000000        0.23267657        0.00000000        0.23267187        0.00000000
      23          1.852502        0.000000        0.00000000        0.00000000        0.00000000        0.00000000        0.00000000        0.00000000        0.00000000        0.00000000        0.54612395
      24          1.855235        0.000000        0.00003243        0.00000000        0.00000426        0.00000000        0.54249539        0.00000000        0.00001168        0.00000000        0.00000000
      25          2.266740        0.000000        0.08783526        0.00000000        0.09062979        0.00000000        0.00000510        0.00000000        0.03874716        0.00000000        0.00000000
      26          2.500893        0.000000        0.00000000        0.01752691        0.00000000        0.01752726        0.00000000        0.23643422        0.00000000        0.23643899        0.00000000
      27          2.507608        0.000000        0.00000000        0.01757268        0.00000000        0.01757233        0.00000000        0.23665984        0.00000000        0.23665506        0.00000000
      28          2.813256        0.000000        0.16170291        0.00000000        0.07748810        0.00000000        0.00000134        0.00000000        0.46703962        0.00000000        0.00000000
