# Projected DOS for atomic kind O at iteration step i = 0, E(Fermi) =    -0.166486 a.u.
#     MO Eigenvalue [a.u.]      Occupation                 s                py                pz                px               d-2               d-1                d0               d+1               d+2
       1        -18.976634        1.000000        0.99726601        0.00000000        0.00000945        0.00000000        0.00000000        0.00000000        0.00000038        0.00000000        0.00000000
       2        -11.090974        0.000000        0.00089234        0.00000000        0.00506414        0.00000000        0.00000000        0.00000000        0.00400381        0.00000000        0.00000000
       3         -1.198455        1.000000        0.50933429        0.00000000        0.08558853        0.00000000        0.00000010        0.00000000        0.00492611        0.00000000        0.00000000
       4         -0.622003        1.000000        0.25493857        0.00000000        0.59815664        0.00000000        0.00000002        0.00000000        0.01005373        0.00000000        0.00000000
       5         -0.532521        1.000000        0.00000000        0.35318776        0.00000000        0.35318265        0.00000000        0.00322305        0.00000000        0.00322301        0.00000000
       6         -0.531380        1.000000        0.00000000        0.35293671        0.00000000        0.35294182        0.00000000        0.00317633        0.00000000        0.00317638        0.00000000
       7         -0.382384        1.000000        0.01983544        0.00000000        0.07154434        0.00000000        0.00000000        0.00000000        0.00012291        0.00000000        0.00000000
       8         -0.166486        1.000000        0.00000000        0.13311144        0.00000000        0.13311270        0.00000000        0.01518788        0.00000000        0.01518803        0.00000000
       9         -0.166256        0.000000        0.00000000        0.13285608        0.00000000        0.13285482        0.00000000        0.01518398        0.00000000        0.01518384        0.00000000
      10          0.233578        0.000000        0.12975466        0.00000000        0.02418137        0.00000000        0.00000003        0.00000000        0.00535608        0.00000000        0.00000000
      11          0.330041        0.000000        0.00000000        0.00683920        0.00000000        0.00683927        0.00000000        0.00175098        0.00000000        0.00175100        0.00000000
      12          0.332146        0.000000        0.00000000        0.00730311        0.00000000        0.00730303        0.00000000        0.00185489        0.00000000        0.00185487        0.00000000
      13          0.392856        0.000000        0.00709656        0.00000000        0.02434707        0.00000000        0.00000019        0.00000000        0.00305697        0.00000000        0.00000000
      14          0.565649        0.000000        0.00934674        0.00000000        0.15015360        0.00000000        0.00000970        0.00000000        0.23062640        0.00000000        0.00000000
      15          0.867851        0.000000        0.04779994        0.00000000        0.81705339        0.00000000        0.00000731        0.00000000        0.02494872        0.00000000        0.00000000
      16          0.956800        0.000000        0.00000000        0.48188134        0.00000000        0.48187416        0.00000000        0.00794526        0.00000000        0.00794515        0.00000000
      17          0.962704        0.000000        0.00000000        0.48220581        0.00000000        0.48221299        0.00000000        0.00822062        0.00000000        0.00822074        0.00000000
      18          1.351639        0.000000        0.00000000        0.00000000        0.00000000        0.00000000        0.00000000        0.00000000        0.00000000        0.00000000        0.21702984
      19          1.354687        0.000000        0.00025065        0.00000000        0.00001509        0.00000000        0.21898163        0.00000000        0.00002596        0.00000000        0.00000000
      20          1.430003        0.000000        0.00000000        0.00946464        0.00000000        0.00946449        0.00000000        0.17741251        0.00000000        0.17740958        0.00000000
      21          1.440047        0.000000        0.00000000        0.00949890        0.00000000        0.00949906        0.00000000        0.17659204        0.00000000        0.17659496        0.00000000
      22          1.528692        0.000000        0.74877384        0.00000000        0.00372160        0.00000000        0.00000004        0.00000000        0.15633241        0.00000000        0.00000000
      23          1.897705        0.000000        0.00000000        0.00000000        0.00000000        0.00000000        0.00000000        0.00000000        0.00000000        0.00000000        0.78297016
      24          1.899530        0.000000        0.00006765        0.00000000        0.00000871        0.00000000        0.78098971        0.00000000        0.00001480        0.00000000        0.00000000
      25          2.250065        0.000000        0.11967231        0.00000000        0.15624631        0.00000000        0.00000801        0.00000000        0.01753584        0.00000000        0.00000000
      26          2.506909        0.000000        0.00000000        0.01531409        0.00000000        0.01531384        0.00000000        0.29438433        0.00000000        0.29437953        0.00000000
      27          2.514086        0.000000        0.00000000        0.01540091        0.00000000        0.01540117        0.00000000        0.29506811        0.00000000        0.29507292        0.00000000
      28          2.853492        0.000000        0.15497100        0.00000000        0.06390977        0.00000000        0.00000327        0.00000000        0.54299589        0.00000000        0.00000000
