# Projected DOS for atomic kind C at iteration step i = 0, E(Fermi) =    -0.114761 a.u.
#     MO Eigenvalue [a.u.]      Occupation                 s                py                pz                px               d-2               d-1                d0               d+1               d+2
       1        -20.339922        0.000000        0.00023446        0.00000000        0.00116636        0.00000000        0.00000000        0.00000000        0.00114552        0.00000000        0.00000000
       2         -9.962610        1.000000        0.98892414        0.00000000        0.00004221        0.00000000        0.00000000        0.00000000        0.00000000        0.00000000        0.00000000
       3         -1.182391        1.000000        0.15710077        0.00000000        0.16232986        0.00000000        0.00000002        0.00000000        0.02734123        0.00000000        0.00000000
       4         -0.627484        1.000000        0.06114274        0.00000000        0.03982491        0.00000000        0.00000000        0.00000000        0.00011107        0.00000000        0.00000000
       5         -0.542293        1.000000        0.00000000        0.08114717        0.00000000        0.08114549        0.00000000        0.01033376        0.00000000        0.01033354        0.00000000
       6         -0.540683        1.000000        0.00000000        0.08147821        0.00000000        0.08147990        0.00000000        0.01030171        0.00000000        0.01030193        0.00000000
       7         -0.330476        1.000000        0.58195850        0.00000000        0.31499530        0.00000000        0.00000002        0.00000000        0.01288436        0.00000000        0.00000000
       8         -0.114761        1.000000        0.00000000        0.39494948        0.00000000        0.39491768        0.00000000        0.00471491        0.00000000        0.00471453        0.00000000
       9         -0.114686        0.000000        0.00000000        0.39467228        0.00000000        0.39470408        0.00000000        0.00472075        0.00000000        0.00472113        0.00000000
      10          0.216523        0.000000        0.14356586        0.00000000        0.58194671        0.00000000        0.00000173        0.00000000        0.11609758        0.00000000        0.00000000
      11          0.453989        0.000000        0.00000000        0.46604297        0.00000000        0.46605260        0.00000000        0.00276389        0.00000000        0.00276395        0.00000000
      12          0.454163        0.000000        0.00000000        0.46371757        0.00000000        0.46370790        0.00000000        0.00276478        0.00000000        0.00276472        0.00000000
      13          0.550037        0.000000        0.66269069        0.00000000        0.10205470        0.00000000        0.00000014        0.00000000        0.00926943        0.00000000        0.00000000
      14          0.602046        0.000000        0.00582074        0.00000000        0.63391387        0.00000000        0.00000023        0.00000000        0.05260381        0.00000000        0.00000000
      15          0.699559        0.000000        0.16822041        0.00000000        0.00829367        0.00000000        0.00000306        0.00000000        0.00155115        0.00000000        0.00000000
      16          0.726901        0.000000        0.00000000        0.02937562        0.00000000        0.02937621        0.00000000        0.00621259        0.00000000        0.00621271        0.00000000
      17          0.731745        0.000000        0.00000000        0.02731788        0.00000000        0.02731734        0.00000000        0.00598316        0.00000000        0.00598304        0.00000000
      18          1.377462        0.000000        0.05874502        0.00000000        0.02341837        0.00000000        0.01800698        0.00000000        0.00312423        0.00000000        0.00000000
      19          1.395597        0.000000        0.00000000        0.00000000        0.00000000        0.00000000        0.00000000        0.00000000        0.00000000        0.00000000        0.54612395
      20          1.399005        0.000000        0.00202582        0.00000000        0.00078560        0.00000000        0.52453884        0.00000000        0.00011292        0.00000000        0.00000000
      21          1.451141        0.000000        0.00000000        0.01689723        0.00000000        0.01689757        0.00000000        0.24380778        0.00000000        0.24381270        0.00000000
      22          1.461107        0.000000        0.00000000        0.01665258        0.00000000        0.01665224        0.00000000        0.24433932        0.00000000        0.24433438        0.00000000
      23          1.852502        0.000000        0.00000000        0.00000000        0.00000000        0.00000000        0.00000000        0.00000000        0.00000000        0.00000000        0.45387605
      24          1.855235        0.000000        0.00000415        0.00000000        0.00000246        0.00000000        0.45743852        0.00000000        0.00001110        0.00000000        0.00000000
      25          2.266740        0.000000        0.01163041        0.00000000        0.01966636        0.00000000        0.00000832        0.00000000        0.75147760        0.00000000        0.00000000
      26          2.500893        0.000000        0.00000000        0.01384657        0.00000000        0.01384685        0.00000000        0.23218725        0.00000000        0.23219194        0.00000000
      27          2.507608        0.000000        0.00000000        0.01390242        0.00000000        0.01390214        0.00000000        0.23187010        0.00000000        0.23186542        0.00000000
      28          2.813256        0.000000        0.15793628        0.00000000        0.11155963        0.00000000        0.00000213        0.00000000        0.02426999        0.00000000        0.00000000
