# Projected DOS for atomic kind O at iteration step i = 0, E(Fermi) =    -0.387675 a.u.
#     MO Eigenvalue [a.u.]      Occupation                 s                py                pz                px               d-2               d-1                d0               d+1               d+2
       1        -18.964250        1.000000        0.99727066        0.00000000        0.00000948        0.00000000        0.00000000        0.00000000        0.00000043        0.00000000        0.00000000
       2        -12.154661        1.000000        0.00080945        0.00000000        0.00448988        0.00000000        0.00000000        0.00000000        0.00346581        0.00000000        0.00000000
       3         -1.190960        1.000000        0.48245388        0.00000000        0.09322825        0.00000000        0.00000016        0.00000000        0.00644235        0.00000000        0.00000000
       4         -0.609613        1.000000        0.27659801        0.00000000        0.57149647        0.00000000        0.00000060        0.00000000        0.01033948        0.00000000        0.00000000
       5         -0.510167        1.000000        0.00000000        0.33038728        0.00000000        0.33038214        0.00000000        0.00391952        0.00000000        0.00391946        0.00000000
       6         -0.507625        1.000000        0.00000000        0.34213288        0.00000000        0.34213815        0.00000000        0.00358283        0.00000000        0.00358289        0.00000000
       7         -0.387675        1.000000        0.02104750        0.00000000        0.07574082        0.00000000        0.00000010        0.00000000        0.00007379        0.00000000        0.00000000
       8         -0.160095        0.000000        0.00000000        0.15446739        0.00000000        0.15446535        0.00000000        0.01425929        0.00000000        0.01425910        0.00000000
       9         -0.149027        0.000000        0.00000000        0.14304217        0.00000000        0.14304407        0.00000000        0.01487270        0.00000000        0.01487290        0.00000000
      10          0.243949        0.000000        0.13447575        0.00000000        0.02709621        0.00000000        0.00000023        0.00000000        0.00581433        0.00000000        0.00000000
      11          0.322948        0.000000        0.00000000        0.00755155        0.00000000        0.00755143        0.00000000        0.00130196        0.00000000        0.00130194        0.00000000
      12          0.343942        0.000000        0.00000000        0.00737678        0.00000000        0.00737690        0.00000000        0.00142346        0.00000000        0.00142348        0.00000000
      13          0.384468        0.000000        0.00683655        0.00000000        0.03186527        0.00000000        0.00000178        0.00000000        0.00569061        0.00000000        0.00000000
      14          0.557317        0.000000        0.01033613        0.00000000        0.15710624        0.00000000        0.00000452        0.00000000        0.22462385        0.00000000        0.00000000
      15          0.878603        0.000000        0.04560382        0.00000000        0.81701868        0.00000000        0.00003409        0.00000000        0.02176660        0.00000000        0.00000000
      16          0.969456        0.000000        0.00000000        0.48227562        0.00000000        0.48226770        0.00000000        0.00828081        0.00000000        0.00828067        0.00000000
      17          0.985987        0.000000        0.00000000        0.48211335        0.00000000        0.48212128        0.00000000        0.00866378        0.00000000        0.00866393        0.00000000
      18          1.386285        0.000000        0.00000000        0.00000000        0.00000000        0.00000000        0.00000000        0.00000000        0.00000000        0.00000000        0.23531719
      19          1.387058        0.000000        0.00127058        0.00000000        0.00046154        0.00000000        0.23534183        0.00000000        0.00057778        0.00000000        0.00000000
      20          1.436400        0.000000        0.00000000        0.01008954        0.00000000        0.01008938        0.00000000        0.17777183        0.00000000        0.17776890        0.00000000
      21          1.469238        0.000000        0.00000000        0.01013026        0.00000000        0.01013042        0.00000000        0.18066205        0.00000000        0.18066503        0.00000000
      22          1.541731        0.000000        0.74995693        0.00000000        0.00345630        0.00000000        0.00019965        0.00000000        0.15140859        0.00000000        0.00000000
      23          1.922182        0.000000        0.00000000        0.00000000        0.00000000        0.00000000        0.00000000        0.00000000        0.00000000        0.00000000        0.76468281
      24          1.922996        0.000000        0.00008688        0.00000000        0.00019763        0.00000000        0.76418513        0.00000000        0.00004429        0.00000000        0.00000000
      25          2.265814        0.000000        0.11948243        0.00000000        0.15543807        0.00000000        0.00020529        0.00000000        0.01282041        0.00000000        0.00000000
      26          2.513004        0.000000        0.00000000        0.01523643        0.00000000        0.01523619        0.00000000        0.29447055        0.00000000        0.29446596        0.00000000
      27          2.541075        0.000000        0.00000000        0.01519675        0.00000000        0.01519699        0.00000000        0.29079119        0.00000001        0.29079574        0.00000000
