# Projected DOS for atomic kind O at iteration step i = 0, E(Fermi) =    -0.296316 a.u.
#     MO Eigenvalue [a.u.]      Occupation                 s                py                pz                px               d-2               d-1                d0               d+1               d+2
       1        -21.784568        1.000000        0.99764007        0.00000000        0.00001271        0.00000000        0.00000000        0.00000000        0.00000001        0.00000000        0.00000000
       2         -9.945520        1.000000        0.00096790        0.00000000        0.00555085        0.00000000        0.00000000        0.00000000        0.00445752        0.00000000        0.00000000
       3         -1.217810        1.000000        0.59897606        0.00000000        0.07839329        0.00000000        0.00000079        0.00000000        0.00240802        0.00000000        0.00000000
       4         -0.656590        1.000000        0.19173741        0.00000000        0.71304872        0.00000000        0.00000012        0.00000000        0.00541061        0.00000000        0.00000000
       5         -0.565036        1.000000        0.00000000        0.42960104        0.00000000        0.42959216        0.00000000        0.00142867        0.00000000        0.00142864        0.00000000
       6         -0.559403        1.000000        0.00000000        0.43091440        0.00000000        0.43092330        0.00000000        0.00138045        0.00000000        0.00138048        0.00000000
       7         -0.296316        1.000000        0.02104895        0.00000000        0.06022945        0.00000000        0.00000005        0.00000000        0.00080635        0.00000000        0.00000000
       8         -0.080679        0.000000        0.00000000        0.06543071        0.00000000        0.06542939        0.00000000        0.01526607        0.00000000        0.01526576        0.00000000
       9         -0.070228        0.000000        0.00000000        0.06420714        0.00000000        0.06420843        0.00000000        0.01532626        0.00000000        0.01532657        0.00000000
      10          0.221975        0.000000        0.13692444        0.00000000        0.01432301        0.00000000        0.00000157        0.00000000        0.00328642        0.00000000        0.00000000
      11          0.475488        0.000000        0.00000000        0.03051914        0.00000000        0.03051978        0.00000000        0.01127085        0.00000000        0.01127108        0.00000000
      12          0.502034        0.000000        0.00000000        0.03326378        0.00000000        0.03326308        0.00000000        0.01170863        0.00000000        0.01170839        0.00000000
      13          0.563469        0.000000        0.03312523        0.00000000        0.37852280        0.00000000        0.00000140        0.00000000        0.03276443        0.00000000        0.00000000
      14          0.608862        0.000000        0.00215699        0.00000000        0.11430956        0.00000000        0.00000153        0.00000000        0.05960085        0.00000000        0.00000000
      15          0.702954        0.000000        0.00000000        0.45125702        0.00000000        0.45126634        0.00000000        0.00391501        0.00000000        0.00391509        0.00000000
      16          0.705359        0.000000        0.05655092        0.00000000        0.46023964        0.00000000        0.00001429        0.00000000        0.21249929        0.00000000        0.00000000
      17          0.718251        0.000000        0.00000000        0.44862885        0.00000000        0.44861959        0.00000000        0.00403058        0.00000000        0.00403050        0.00000000
      18          1.365036        0.000000        0.71178042        0.00000000        0.01703306        0.00000000        0.00459112        0.00000000        0.17558108        0.00000000        0.00000000
      19          1.430953        0.000000        0.00000000        0.00000000        0.00000000        0.00000000        0.00000000        0.00000000        0.00000000        0.00000000        0.52006837
      20          1.432168        0.000000        0.00584493        0.00000000        0.00039931        0.00000000        0.51507314        0.00000000        0.00098709        0.00000000        0.00000000
      21          1.465458        0.000000        0.00000000        0.00563266        0.00000000        0.00563278        0.00000000        0.23714904        0.00000000        0.23715388        0.00000000
      22          1.494266        0.000000        0.00000000        0.00561011        0.00000000        0.00561000        0.00000000        0.24073321        0.00000000        0.24072830        0.00000000
      23          1.888723        0.000000        0.00000000        0.00000000        0.00000000        0.00000000        0.00000000        0.00000000        0.00000000        0.00000000        0.47993163
      24          1.889365        0.000000        0.00010681        0.00000000        0.00015728        0.00000000        0.48013720        0.00000000        0.00013093        0.00000000        0.00000000
      25          2.280610        0.000000        0.08066147        0.00000000        0.07990442        0.00000000        0.00016888        0.00000000        0.03562565        0.00000000        0.00000000
      26          2.515913        0.000000        0.00000000        0.01745933        0.00000000        0.01745968        0.00000000        0.23095328        0.00000000        0.23095801        0.00000000
      27          2.543774        0.000000        0.00000000        0.01747582        0.00000000        0.01747546        0.00000000        0.22683795        0.00000000        0.22683331        0.00000000
