# Projected DOS for atomic kind C at iteration step i = 0, E(Fermi) =    -0.387675 a.u.
#     MO Eigenvalue [a.u.]      Occupation                 s                py                pz                px               d-2               d-1                d0               d+1               d+2
       1        -18.964250        1.000000        0.00025825        0.00000000        0.00124963        0.00000000        0.00000000        0.00000000        0.00121155        0.00000000        0.00000000
       2        -12.154661        1.000000        0.99119607        0.00000000        0.00003856        0.00000000        0.00000001        0.00000000        0.00000022        0.00000000        0.00000000
       3         -1.190960        1.000000        0.20243872        0.00000000        0.19002796        0.00000000        0.00000227        0.00000000        0.02540641        0.00000000        0.00000000
       4         -0.609613        1.000000        0.09425061        0.00000000        0.04710548        0.00000000        0.00000446        0.00000000        0.00020489        0.00000000        0.00000000
       5         -0.510167        1.000000        0.00000000        0.15574498        0.00000000        0.15574258        0.00000000        0.00995210        0.00000000        0.00995194        0.00000000
       6         -0.507625        1.000000        0.00000000        0.14397646        0.00000000        0.14397870        0.00000000        0.01030396        0.00000000        0.01030412        0.00000000
       7         -0.387675        1.000000        0.48724665        0.00000000        0.40770516        0.00000000        0.00002136        0.00000000        0.00816463        0.00000000        0.00000000
       8         -0.160095        0.000000        0.00000000        0.32471369        0.00000000        0.32470938        0.00000000        0.00656294        0.00000000        0.00656285        0.00000000
       9         -0.149027        0.000000        0.00000000        0.33607472        0.00000000        0.33607917        0.00000000        0.00600710        0.00000000        0.00600718        0.00000000
      10          0.243949        0.000000        0.18895380        0.00000000        0.49260090        0.00000000        0.00006947        0.00000000        0.15098931        0.00000000        0.00000000
      11          0.322948        0.000000        0.00000000        0.48688995        0.00000000        0.48688189        0.00000000        0.00426068        0.00000000        0.00426061        0.00000000
      12          0.343942        0.000000        0.00000000        0.48704453        0.00000000        0.48705259        0.00000000        0.00415110        0.00000000        0.00415117        0.00000000
      13          0.384468        0.000000        0.40380695        0.00000000        0.54745087        0.00000000        0.00001415        0.00000000        0.00433383        0.00000000        0.00000000
      14          0.557317        0.000000        0.40850672        0.00000000        0.16141176        0.00000000        0.00018066        0.00000000        0.03783014        0.00000000        0.00000000
      15          0.878603        0.000000        0.02147766        0.00000000        0.02806892        0.00000000        0.00017923        0.00000000        0.06585101        0.00000000        0.00000000
      16          0.969456        0.000000        0.00000000        0.00839979        0.00000000        0.00839965        0.00000000        0.00104789        0.00000000        0.00104787        0.00000000
      17          0.985987        0.000000        0.00000000        0.00837688        0.00000000        0.00837702        0.00000000        0.00084187        0.00000000        0.00084189        0.00000000
      18          1.386285        0.000000        0.00000000        0.00000000        0.00000000        0.00000000        0.00000000        0.00000000        0.00000000        0.00000000        0.76468281
      19          1.387058        0.000000        0.00010847        0.00000000        0.00008474        0.00000000        0.76203680        0.00000000        0.00011825        0.00000000        0.00000000
      20          1.436400        0.000000        0.00000000        0.01005948        0.00000000        0.01005932        0.00000000        0.30208327        0.00000000        0.30207828        0.00000000
      21          1.469238        0.000000        0.00000000        0.01038214        0.00000000        0.01038231        0.00000000        0.29882143        0.00000000        0.29882636        0.00000000
      22          1.541731        0.000000        0.05102619        0.00000000        0.02047498        0.00000000        0.00180211        0.00000000        0.02167524        0.00000000        0.00000000
      23          1.922182        0.000000        0.00000000        0.00000000        0.00000000        0.00000000        0.00000000        0.00000000        0.00000000        0.00000000        0.23531719
      24          1.922996        0.000000        0.00006758        0.00000000        0.00006192        0.00000000        0.23498949        0.00000000        0.00036707        0.00000000        0.00000000
      25          2.265814        0.000000        0.00790687        0.00000000        0.02898659        0.00000000        0.00069965        0.00000000        0.67446069        0.00000000        0.00000000
      26          2.513004        0.000000        0.00000000        0.01419975        0.00000000        0.01419953        0.00000000        0.17609716        0.00000000        0.17609441        0.00000000
      27          2.541075        0.000000        0.00000000        0.01413763        0.00000000        0.01413785        0.00000000        0.17987050        0.00000000        0.17987331        0.00000000
