      17
 i =       0, E =       -0.2561551684
  N         3.5805017600        1.4577026447       -0.0066237405
  H         2.9827667696        2.2286986432       -0.2699999951
  H         3.4304541468        1.2499784748        0.9700596181
  H         3.4902769433        0.7268318811       -0.6980182801
  C         4.9560511987        1.9026458572       -0.0967252352
  H         5.5158526770        1.5298157392        0.7615888146
  H         5.4027270836        1.5213331251       -1.0146872466
  C         5.0222891104        3.4234846804       -0.1085071268
  O         4.0299259735        4.0925797445        0.1721513837
  N         6.1959409535        3.9680978667       -0.4345053302
  H         6.2429197686        4.6690446939       -1.1610502609
  C         7.4283525728        3.5853510777        0.2251676921
  H         7.2789895893        3.5936234442        1.3054224153
  H         7.7152619728        2.5845804745       -0.0952822975
  C         8.5442522898        4.5579996630       -0.1284600092
  O         8.2897955271        5.6200975203       -0.6922089758
  O         9.7114043200        4.2931706699        0.1470898825
      17
 i =       1, E =       -0.2561550771
  N         3.5814943233        1.4564961154       -0.0050223648
  H         2.9833692657        2.2270873448       -0.2686974919
  H         3.4317044328        1.2492111933        0.9717938666
  H         3.4914808008        0.7252265339       -0.6960226289
  C         4.9568288837        1.9020092617       -0.0955866144
  H         5.5169421045        1.5298753264        0.7628261733
  H         5.4035210660        1.5204208720       -1.0134261402
  C         5.0223827637        3.4228713172       -0.1081682224
  O         4.0297669611        4.0916668137        0.1723107472
  N         6.1957353101        3.9678415596       -0.4346467617
  H         6.2422773651        4.6684325234       -1.1615629457
  C         7.4284295755        3.5859895285        0.2250166938
  H         7.2792448977        3.5947551078        1.3052921663
  H         7.7157337622        2.5851816284       -0.0949627608
  C         8.5438333898        4.5589548470       -0.1293035289
  O         8.2888053663        5.6206460205       -0.6935601719
  O         9.7111504759        4.2947921293        0.1461867235
      17
 i =       2, E =       -0.2561550658
  N         3.5811601887        1.4569379229       -0.0047654447
  H         2.9834289013        2.2271487517       -0.2704373989
  H         3.4301786602        1.2512910245        0.9722135373
  H         3.4919017597        0.7245300757       -0.6946572322
  C         4.9566469832        1.9021648322       -0.0944207700
  H         5.5156934624        1.5314026603        0.7652800186
  H         5.4044008528        1.5190080522       -1.0110888419
  C         5.0223683710        3.4229974348       -0.1094505475
  O         4.0294841102        4.0923555684        0.1687266148
  N         6.1961660725        3.9673091690       -0.4354270678
  H         6.2436497269        4.6666867898       -1.1634499013
  C         7.4280303876        3.5864325955        0.2263473236
  H         7.2775517089        3.5970077413        1.3064271047
  H         7.7156176086        2.5850661923       -0.0916242424
  C         8.5439556827        4.5586982471       -0.1282513771
  O         8.2897106894        5.6194754756       -0.6945765090
  O         9.7109151948        4.2948789296        0.1490767041
      17
 i =       3, E =       -0.2561550278
  N         3.5798447374        1.4586664787       -0.0040264350
  H         2.9836512794        2.2274340588       -0.2772274022
  H         3.4243115936        1.2591734726        0.9735143477
  H         3.4934420422        0.7220050587       -0.6897403160
  C         4.9559099719        1.9027999499       -0.0901596462
  H         5.5108659704        1.5371922192        0.7743852207
  H         5.4076946371        1.5137634305       -1.0023625858
  C         5.0223240288        3.4234840338       -0.1143689418
  O         4.0284527526        4.0949432024        0.1550832269
  N         6.1978239361        3.9653038426       -0.4383570016
  H         6.2489243384        4.6601099138       -1.1705006162
  C         7.4264918457        3.5880905549        0.2314096021
  H         7.2710787623        3.6054580899        1.3107024920
  H         7.7151191833        2.5846509990       -0.0789938732
  C         8.5444266392        4.5576995668       -0.1241324650
  O         8.2932103920        5.6150218106       -0.6982170146
  O         9.7099969818        4.2951687527        0.1601725618
      17
 i =       4, E =       -0.2561549624
  N         3.5778059106        1.4613494952       -0.0028998990
  H         2.9841119862        2.2277020569       -0.2880670000
  H         3.4150203623        1.2716675971        0.9754127518
  H         3.4959357745        0.7179600358       -0.6818758871
  C         4.9547461652        1.9038257697       -0.0833938862
  H         5.5031486681        1.5465122165        0.7887670619
  H         5.4129228127        1.5054887203       -0.9883661261
  C         5.0223064816        3.4241563738       -0.1222198811
  O         4.0269257046        4.0988225387        0.1332887776
  N         6.2004838466        3.9620643435       -0.4429847681
  H         6.2573662187        4.6495322626       -1.1816005382
  C         7.4239932949        3.5908288661        0.2394453383
  H         7.2607242742        3.6190077401        1.3173494054
  H         7.7142356026        2.5841912765       -0.0588618290
  C         8.5451105010        4.5562239247       -0.1175400828
  O         8.2987632048        5.6079318061       -0.7039158513
  O         9.7084084782        4.2958709151        0.1778581682
      17
 i =       5, E =       -0.2561548682
  N         3.5753293333        1.4646244548       -0.0013600682
  H         2.9848951712        2.2276724839       -0.3017501571
  H         3.4033267552        1.2875084916        0.9777308616
  H         3.4991934630        0.7127112940       -0.6715607306
  C         4.9532961982        1.9051475152       -0.0746795917
  H         5.4933073590        1.5586017355        0.8070102454
  H         5.4195455336        1.4950335303       -0.9702191367
  C         5.0223798122        3.4248170533       -0.1322030603
  O         4.0251884934        4.1033245757        0.1054500816
  N         6.2038952747        3.9578365855       -0.4488233220
  H         6.2681566571        4.6358160372       -1.1955597800
  C         7.4207341153        3.5945184657        0.2496071897
  H         7.2474909648        3.6365127984        1.3255027640
  H         7.7129601142        2.5839795171       -0.0331683377
  C         8.5458558503        4.5545666742       -0.1091943138
  O         8.3057672736        5.5988898941       -0.7111573423
  O         9.7061624732        4.2972377335        0.2002832415
      17
 i =       6, E =       -0.2561547447
  N         3.5726330222        1.4682197714        0.0007269453
  H         2.9860598120        2.2271240797       -0.3172119169
  H         3.3900498206        1.3057343957        0.9804390852
  H         3.5030387867        0.7065151628       -0.6590470552
  C         4.9516624935        1.9067028070       -0.0643833057
  H         5.4819532850        1.5728958338        0.8280558132
  H         5.4271053110        1.4830664941       -0.9487245304
  C         5.0225951427        3.4253081939       -0.1436501840
  O         4.0234786751        4.1079158664        0.0732715751
  N         6.2078556916        3.9528039812       -0.4554876826
  H         6.2806332946        4.6196092835       -1.2114474099
  C         7.4168769528        3.5990678900        0.2611993954
  H         7.2321991107        3.6571030058        1.3344440180
  H         7.7112791090        2.5842605871       -0.0034522784
  C         8.5465452742        4.5529579124       -0.0997345444
  O         8.3137444845        5.5884105880       -0.7196172341
  O         9.7032737708        4.2994770397        0.2258919783
      17
 i =       7, E =       -0.2561545927
  N         3.5698379708        1.4719913691        0.0035523627
  H         2.9876382434        2.2259141771       -0.3336906904
  H         3.3756954080        1.3258049851        0.9836096093
  H         3.5073284461        0.6995496374       -0.6443406304
  C         4.9498920684        1.9084775564       -0.0526570307
  H         5.4694534280        1.5891070647        0.8513017531
  H         5.4352809471        1.4700122321       -0.9242755228
  C         5.0229882637        3.4255239041       -0.1561187395
  O         4.0219661894        4.1122423789        0.0378259513
  N         6.2122402920        3.9470616352       -0.4627374085
  H         6.2943850599        4.6012592347       -1.2286869746
  C         7.4125213561        3.6044405844        0.2737666192
  H         7.2153727188        3.6802889813        1.3436766320
  H         7.7091627850        2.5852213237        0.0293428860
  C         8.5471071858        4.5515392687       -0.0896189572
  O         8.3224074102        5.5767701222       -0.7291693522
  O         9.6997470497        4.3027410574        0.2536401203
      17
 i =       8, E =       -0.2561544122
  N         3.5669975632        1.4758839663        0.0073154086
  H         2.9896598186        2.2239306358       -0.3507297129
  H         3.3605052147        1.3475202170        0.9873448254
  H         3.5119736652        0.6919110272       -0.6272693386
  C         4.9479942236        1.9104947063       -0.0394898112
  H         5.4559626848        1.6071932184        0.8765119627
  H         5.4438882960        1.4560924386       -0.8969165708
  C         5.0235882548        3.4253846511       -0.1693782163
  O         4.0207688102        4.1160643144       -0.0003907491
  N         6.2169951896        3.9406229810       -0.4704535416
  H         6.3092280682        4.5808433527       -1.2469919964
  C         7.4077042044        3.6106629740        0.2870690229
  H         7.1972602489        3.7059211539        1.3528866531
  H         7.7065637822        2.5870288429        0.0648009000
  C         8.5474982585        4.5503996557       -0.0791201128
  O         8.3316270401        5.5640496075       -0.7398215524
  O         9.6955592921        4.3071773275        0.2829638032
      17
 i =       9, E =       -0.2561541999
  N         3.5641392269        1.4798770406        0.0121959236
  H         2.9921832949        2.2210230224       -0.3681434584
  H         3.3445297408        1.3709171263        0.9917230598
  H         3.5169682006        0.6836013539       -0.6075289549
  C         4.9459654899        1.9127974452       -0.0247513676
  H         5.4414725505        1.6273195948        0.9037194988
  H         5.4528780573        1.4413719924       -0.8663989728
  C         5.0244294365        3.4248017947       -0.1833806723
  O         4.0199745336        4.1191694533       -0.0413739730
  N         6.2221265286        3.9334259969       -0.4786095606
  H         6.3251675786        4.5582026911       -1.2662881908
  C         7.4024016916        3.6178386782        0.3010424026
  H         7.1778691914        3.7341467582        1.3618843262
  H         7.7034156157        2.5898824852        0.1029422190
  C         8.5476787878        4.5496249303       -0.0683418868
  O         8.3413851609        5.5501903004       -0.7516609043
  O         9.6906363704        4.3130016770        0.3137096809
      17
 i =      10, E =       -0.2561539474
  N         3.5612764116        1.4839699671        0.0183493714
  H         2.9953275121        2.2169506608       -0.3860392359
  H         3.3276235503        1.3962761219        0.9967614164
  H         3.5224064597        0.6745138468       -0.5846505592
  C         4.9437907494        1.9154549380       -0.0081803438
  H         5.4257875241        1.6499040323        0.9332254271
  H         5.4623436662        1.4257651616       -0.8321219651
  C         5.0255658355        3.4236500260       -0.1982787707
  O         4.0196692830        4.1213126123       -0.0856686412
  N         6.2277114348        3.9253143623       -0.4872698637
  H         6.3424271621        4.5328933442       -1.2867003377
  C         7.3965107976        3.6261810505        0.3158050464
  H         7.1569310305        3.7654607496        1.3705707552
  H         7.6996069897        2.5940693721        0.1442673491
  C         8.5475957311        4.5493274757       -0.0572018619
  O         8.3517797630        5.5349814522       -0.7648425513
  O         9.6848150010        4.3205670963        0.3461677216
      17
 i =      11, E =       -0.2561536412
  N         3.5583834993        1.4882154081        0.0258983616
  H         2.9993038024        2.2113479245       -0.4049127992
  H         3.3093523274        1.4242417184        1.0023536050
  H         3.5284790678        0.6644364167       -0.5579105955
  C         4.9414108618        1.9186016196        0.0106660391
  H         5.4084116198        1.6757569427        0.9656632930
  H         5.4725255096        1.4090238685       -0.7929636931
  C         5.0270928097        3.4217440140       -0.2144973367
  O         4.0199853198        4.1221650414       -0.1345793276
  N         6.2339355659        3.9159913199       -0.4966093046
  H         6.3615577270        4.5040511285       -1.3085817460
  C         7.3898040514        3.6360671112        0.3317097653
  H         7.1337891577        3.8008468365        1.3789117594
  H         7.6949153907        2.6000396238        0.1899313606
  C         8.5471717957        4.5496558952       -0.0453650790
  O         8.3630943648        5.5179725092       -0.7795935410
  O         9.6777796652        4.3304347593        0.3812189561
      17
 i =      12, E =       -0.2561532646
  N         3.5553500705        1.4927789634        0.0349036574
  H         3.0044630787        2.2036787846       -0.4257849212
  H         3.2888542903        1.4559969502        1.0081462184
  H         3.5354445314        0.6530846667       -0.5262168800
  C         4.9386638420        1.9225068745        0.0324680267
  H         5.3883713249        1.7062909883        1.0020539540
  H         5.4837921545        1.3907515291       -0.7470474482
  C         5.0291827386        3.4188020281       -0.2328320723
  O         4.0211899819        4.1212243292       -0.1904585759
  N         6.2411497397        3.9049532623       -0.5069305324
  H         6.3835999563        4.4701988607       -1.3325250753
  C         7.3818606732        3.6481153481        0.3494075154
  H         7.1072417243        3.8419660480        1.3868728589
  H         7.6888928656        2.6085307231        0.2419736279
  C         8.5462889568        4.5508074565       -0.0321468451
  O         8.3759066493        5.4983401877       -0.7961917341
  O         9.6689638666        4.3434783691        0.4205359315
      17
 i =      13, E =       -0.2561527998
  N         3.5519207866        1.4980183583        0.0453379478
  H         3.0113766010        2.1931439246       -0.4503448444
  H         3.2646690584        1.4934893503        1.0133461775
  H         3.5435708202        0.6401702315       -0.4879217162
  C         4.9351955924        1.9276855102        0.0582201157
  H         5.3639676503        1.7438328819        1.0438345095
  H         5.4965786092        1.3704675547       -0.6913999605
  C         5.0321467415        3.4143741325       -0.2545648182
  O         4.0238466773        4.1176285110       -0.2570667507
  N         6.2499487398        3.8913908076       -0.5186677992
  H         6.4103048701        4.4289670376       -1.3593215379
  C         7.3719651229        3.6633102348        0.3699043636
  H         7.0753404691        3.8914157717        1.3942625426
  H         7.6806785043        2.6207910563        0.3035959135
  C         8.5447536811        4.5530654717       -0.0164020125
  O         8.3912337002        5.4747020455       -0.8149197901
  O         9.6573899471        4.3610740066        0.4668016887
      17
 i =      14, E =       -0.2561522329
  N         3.5476218985        1.5045807164        0.0570448825
  H         3.0209886577        2.1784832910       -0.4811017049
  H         3.2345301926        1.5397111564        1.0163745630
  H         3.5530299813        0.6255324784       -0.4405331998
  C         4.9303224564        1.9350761781        0.0893221924
  H         5.3324136028        1.7921010262        1.0927980595
  H         5.5112442763        1.3477824215       -0.6214442127
  C         5.0365479752        3.4076963003       -0.2815997871
  O         4.0291158995        4.1097707452       -0.3400299728
  N         6.2612872735        3.8740357002       -0.5323550770
  H         6.4444486528        4.3766764235       -1.3897961610
  C         7.3589465703        3.6832125280        0.3945929178
  H         7.0351203612        3.9530928005        1.4003907230
  H         7.6686756836        2.6389966293        0.3794921451
  C         8.5422208079        4.5568964491        0.0036089228
  O         8.4107292628        5.4448547484       -0.8359463358
  O         9.6413887993        4.3854634118        0.5239419321
      17
 i =      15, E =       -0.2561515617
  N         3.5416652861        1.5135294170        0.0696391230
  H         3.0349200982        2.1575677850       -0.5215570331
  H         3.1950979485        1.5990588040        1.0141759431
  H         3.5636946868        0.6094061789       -0.3802662845
  C         4.9227970047        1.9463534389        0.1276696499
  H         5.2892462331        1.8569939538        1.1508083724
  H         5.5277585562        1.3228134968       -0.5301999890
  C         5.0434227019        3.3973941885       -0.3166356329
  O         4.0393497070        4.0945046866       -0.4474651945
  N         6.2766691998        3.8509065571       -0.5485119079
  H         6.4903307812        4.3076682311       -1.4243649217
  C         7.3408988335        3.7103353988        0.4252216472
  H         6.9821997789        4.0327336683        1.4033434924
  H         7.6499499117        2.6670564402        0.4762456180
  C         8.5380292273        4.5631708751        0.0304046383
  O         8.4369792606        5.4053780810       -0.8590271615
  O         9.6180707566        4.4204639638        0.5973711563
      17
 i =      16, E =       -0.2561508145
  N         3.5328194535        1.5265128333        0.0822442769
  H         3.0560670668        2.1265933214       -0.5763144294
  H         3.1416700863        1.6777094342        1.0007842926
  H         3.5746877245        0.5930260352       -0.3014071868
  C         4.9103805700        1.9644990546        0.1756382822
  H         5.2273602436        1.9478789362        1.2188691570
  H         5.5449584286        1.2971855982       -0.4070938108
  C         5.0547208522        3.3808907335       -0.3633213591
  O         4.0593076540        4.0655092421       -0.5906802442
  N         6.2984559888        3.8188973554       -0.5673069204
  H         6.5545496879        4.2132713069       -1.4618940898
  C         7.3146860651        3.7488062461        0.4636468460
  H         6.9102421103        4.1386278440        1.3984153784
  H         7.6190601845        2.7121810438        0.6026129759
  C         8.5308538773        4.5736327355        0.0675065743
  O         8.4739414182        5.3510520243       -0.8827529804
  O         9.5823105508        4.4728321350        0.6940718963
      17
 i =      17, E =       -0.2561500971
  N         3.5192645819        1.5459524955        0.0928948935
  H         3.0897354820        2.0785634052       -0.6506905900
  H         3.0681546844        1.7836430318        0.9644320811
  H         3.5833331688        0.5800267947       -0.1955869201
  C         4.8890652424        1.9948377113        0.2356436706
  H         5.1355641888        2.0795092479        1.2944883241
  H         5.5587707905        1.2764092980       -0.2365089465
  C         5.0741674322        3.3532547985       -0.4261094530
  O         4.0986291669        4.0099838437       -0.7842631269
  N         6.3303136370        3.7731838112       -0.5876437726
  H         6.6470233298        4.0804496776       -1.4968652296
  C         7.2751245488        3.8054570398        0.5108974326
  H         6.8105197939        4.2821882587        1.3747248266
  H         7.5658189872        2.7878731295        0.7689027213
  C         8.5179903064        4.5918576297        0.1195039977
  O         8.5274870037        5.2741421666       -0.9027536134
  O         9.5248609252        4.5547832381        0.8217454422
      17
 i =      18, E =       -0.2561497025
  N         3.4987040392        1.5748756295        0.0971883512
  H         3.1453547993        2.0010301998       -0.7481669568
  H         2.9687840183        1.9242778290        0.8824761166
  H         3.5829012225        0.5794544835       -0.0524330923
  C         4.8519998361        2.0464458086        0.3079988165
  H         4.9976993560        2.2731067536        1.3646347357
  H         5.5582617915        1.2751624708        0.0015855934
  C         5.1086559976        3.3053591883       -0.5085437221
  O         4.1761468642        3.9029296113       -1.0420025356
  N         6.3774248834        3.7069715665       -0.6048246233
  H         6.7810178035        3.8918558694       -1.5127516850
  C         7.2141444778        3.8909051116        0.5641795560
  H         6.6732298525        4.4760992846        1.3086841887
  H         7.4718120758        2.9185193701        0.9820555885
  C         8.4940844982        4.6249383204        0.1909788158
  O         8.6052410152        5.1646695862       -0.9076327577
  O         9.4296236095        4.6875808551        0.9841676231
      17
 i =      19, E =       -0.2561503259
  N         3.4694305724        1.6155230739        0.0867720904
  H         3.2366122992        1.8759898449       -0.8614060114
  H         2.8453801293        2.0970162622        0.7178817116
  H         3.5589353026        0.6104907444        0.1340787489
  C         4.7894333096        2.1321823705        0.3849078734
  H         4.7975372988        2.5499055714        1.3921440189
  H         5.5192759637        1.3254685569        0.3207555285
  C         5.1688802955        3.2231100168       -0.6067442104
  O         4.3232238159        3.7029512551       -1.3589805459
  N         6.4446623780        3.6138999261       -0.6061742707
  H         6.9670334457        3.6338475203       -1.4711202581
  C         7.1222634195        4.0175867735        0.6097187171
  H         6.4959400580        4.7232970724        1.1565459486
  H         7.3091396487        3.1408981122        1.2286219938
  C         8.4502301223        4.6846154990        0.2812265322
  O         8.7127914854        5.0153731838       -0.8730151602
  O         9.2736985082        4.9013595556        1.1662281319
      17
 i =      20, E =       -0.2561529278
  N         3.4352942563        1.6626400317        0.0514027200
  H         3.3683762720        1.6975120901       -0.9562653419
  H         2.7258997182        2.2641216656        0.4445353101
  H         3.4940060936        0.6961206369        0.3390347413
  C         4.6985514702        2.2554357405        0.4399943555
  H         4.5487760510        2.8906346260        1.3135919171
  H         5.4113487471        1.4675011720        0.6821764311
  C         5.2604334688        3.0994341586       -0.6955373657
  O         4.5615740029        3.3820928390       -1.6665891239
  N         6.5266461715        3.5014765984       -0.5714234333
  H         7.1853376259        3.3336213212       -1.3193212698
  C         7.0021130253        4.1814965932        0.6168551863
  H         6.3092753700        4.9821903900        0.8779938986
  H         7.0649512009        3.4711326628        1.4402514761
  C         8.3802313720        4.7788489543        0.3713150081
  O         8.8373766791        4.8437620748       -0.7677273330
  O         9.0502720950        5.2042682898        1.3085288676
