      17
 i =       0, E =       -0.2415947253
  N         3.4434441007        1.9695775534       -0.7940179124
  H         3.4642724351        1.8225675956       -1.7929554744
  H         3.3554502329        2.9588853077       -0.6128432824
  H         2.7870617685        1.3204539783       -0.3841571822
  C         4.7365140778        1.5962750649       -0.2562258647
  H         4.5969838433        0.9513484169        0.6108167711
  H         5.3075279916        1.0646422078       -1.0176722617
  C         5.5121315001        2.8355080595        0.1682693640
  O         5.1778166489        3.4676584272        1.1682001080
  N         6.5503618210        3.1813984357       -0.5951274190
  H         6.4468552355        3.2249881524       -1.5990239891
  C         7.8446612949        3.5025150222       -0.0284626064
  H         7.8648314399        3.2101060689        1.0211616927
  H         8.6228384808        2.9644419988       -0.5711399403
  C         8.1131502931        4.9973264322       -0.1309004238
  O         7.5045088988        5.7907621887        0.5833504800
  O         8.9423238570        5.4287470095       -0.9291663484
      17
 i =       1, E =       -0.2415578192
  N         3.4423247173        1.9704553017       -0.7928914700
  H         3.4633216700        1.8245987041       -1.7927285678
  H         3.3537346087        2.9600986754       -0.6091284996
  H         2.7878883849        1.3205125188       -0.3805680489
  C         4.7348712639        1.5959654407       -0.2586641155
  H         4.6007903735        0.9494196667        0.6076021626
  H         5.3025028086        1.0649184571       -1.0207058679
  C         5.5108535132        2.8360203038        0.1664620946
  O         5.1817885849        3.4666964753        1.1710314299
  N         6.5505344183        3.1795362584       -0.5959272250
  H         6.4463130353        3.2269697031       -1.6005665315
  C         7.8419674918        3.5021295303       -0.0302262544
  H         7.8643144449        3.2082066837        1.0171276428
  H         8.6220910533        2.9674981546       -0.5744066681
  C         8.1115838590        4.9985106855       -0.1299088312
  O         7.5080788091        5.7914468863        0.5868031508
  O         8.9413078049        5.4288328956       -0.9314937095
      17
 i =       2, E =       -0.2417138257
  N         3.4430180859        1.9696032091       -0.7936345937
  H         3.4648170477        1.8229576776       -1.7925956473
  H         3.3541604937        2.9591078668       -0.6096910176
  H         2.7878051141        1.3218335211       -0.3813769351
  C         4.7351330697        1.5958089680       -0.2577874663
  H         4.6001568727        0.9498177564        0.6097426962
  H         5.3038467258        1.0632299635       -1.0187151661
  C         5.5106774314        2.8364789005        0.1665756738
  O         5.1806182708        3.4680597525        1.1702068607
  N         6.5508818315        3.1790229425       -0.5953241437
  H         6.4493361916        3.2246598742       -1.6004471221
  C         7.8419231135        3.5023017908       -0.0288639061
  H         7.8635422569        3.2089878810        1.0186424347
  H         8.6224078240        2.9669342263       -0.5720136893
  C         8.1115827255        4.9985678866       -0.1299486939
  O         7.5072921398        5.7921655654        0.5855394304
  O         8.9420009523        5.4278432130       -0.9314547319
      17
 i =       3, E =       -0.2420339141
  N         3.4458045680        1.9663298625       -0.7963890110
  H         3.4704366615        1.8160155640       -1.7935688874
  H         3.3558884105        2.9564157384       -0.6150417700
  H         2.7883298583        1.3226198369       -0.3835197737
  C         4.7361835228        1.5952367769       -0.2542663635
  H         4.5978315334        0.9524745566        0.6163202824
  H         5.3075671374        1.0585314756       -1.0110184941
  C         5.5100517367        2.8383075438        0.1670725608
  O         5.1761078774        3.4733420263        1.1670744143
  N         6.5522429170        3.1770624383       -0.5929840925
  H         6.4563995783        3.2174409232       -1.5988805619
  C         7.8418054313        3.5029741062       -0.0236049779
  H         7.8601168709        3.2133016697        1.0250548799
  H         8.6238374117        2.9649758173       -0.5621034667
  C         8.1116638474        4.9987784509       -0.1301331650
  O         7.5042020539        5.7948557128        0.5807907025
  O         8.9447752255        5.4238402970       -0.9315286356
      17
 i =       4, E =       -0.2424882667
  N         3.4506469753        1.9607456000       -0.8009817764
  H         3.4800449283        1.8039473964       -1.7955893105
  H         3.3589649178        2.9519921357       -0.6249892018
  H         2.7894745107        1.3228265185       -0.3869926501
  C         4.7379763512        1.5942594804       -0.2481857415
  H         4.5938465994        0.9573751877        0.6270984000
  H         5.3135465626        1.0510072035       -0.9977587131
  C         5.5089492444        2.8414259592        0.1678963637
  O         5.1683941071        3.4823980244        1.1616349487
  N         6.5546249852        3.1737546253       -0.5889667922
  H         6.4673147423        3.2054810603       -1.5958436389
  C         7.8415606039        3.5041570735       -0.0146166781
  H         7.8540896090        3.2210692250        1.0360889781
  H         8.6262710218        2.9617834095       -0.5449465262
  C         8.1118072712        4.9991378405       -0.1304457819
  O         7.4989464186        5.7993757384        0.5726349129
  O         8.9495184703        5.4169419750       -0.9316332903
      17
 i =       5, E =       -0.2430439445
  N         3.4575214736        1.9529539699       -0.8071879378
  H         3.4935160096        1.7869295837       -1.7985308045
  H         3.3634767194        2.9457665948       -0.6393042033
  H         2.7912741276        1.3224087114       -0.3918001339
  C         4.7404575713        1.5929109460       -0.2396321661
  H         4.5882196696        0.9645273534        0.6418016882
  H         5.3216449092        1.0408879579       -0.9790589781
  C         5.5073244809        2.8457385124        0.1689669901
  O         5.1576294729        3.4950681161        1.1538403371
  N         6.5580526484        3.1692331766       -0.5833236399
  H         6.4818906875        3.1889629147       -1.5912643172
  C         7.8411042154        3.5058889188       -0.0020847146
  H         7.8454903900        3.2322388937        1.0514070123
  H         8.6295562503        2.9575853961       -0.5208179443
  C         8.1119848857        4.9996470819       -0.1308641142
  O         7.4916939929        5.8055326967        0.5611301446
  O         8.9560955772        5.4072684902       -0.9316458804
      17
 i =       6, E =       -0.2436686090
  N         3.4664096473        1.9430460917       -0.8147452562
  H         3.5107326688        1.7651399310       -1.8021913297
  H         3.3695446315        2.9376487170       -0.6577198358
  H         2.7937839775        1.3213185004       -0.3979419600
  C         4.7435593437        1.5912467438       -0.2286891824
  H         4.5809563154        0.9739592201        0.6601277127
  H         5.3316992478        1.0284461907       -0.9550198647
  C         5.5051281151        2.8511408125        0.1701893323
  O         5.1439831868        3.5111832180        1.1435973941
  N         6.5625486545        3.1636522083       -0.5760954599
  H         6.4999330199        3.1680813381       -1.5850224084
  C         7.8403325342        3.5082322853        0.0137915327
  H         7.8343306489        3.2467824148        1.0706212812
  H         8.6335030407        2.9526657880       -0.4899959561
  C         8.1121649472        5.0002999738       -0.1313677938
  O         7.4826478388        5.8130978557        0.5463142336
  O         8.9643498270        5.3949473887       -0.9314062511
      17
 i =       7, E =       -0.2443323537
  N         3.4773062183        1.9310778807       -0.8233815174
  H         3.5316158482        1.7387166542       -1.8062913822
  H         3.3773286619        2.9275305027       -0.6799688152
  H         2.7970814917        1.3194950490       -0.4054089234
  C         4.7471974643        1.5893390933       -0.2154124077
  H         4.5720381080        0.9857363654        0.6817912111
  H         5.3435393182        1.0139706493       -0.9256709747
  C         5.5023189738        2.8575373468        0.1714656194
  O         5.1276185982        3.5305980225        1.1307502956
  N         6.5681193950        3.1571603655       -0.5672961982
  H         6.5212712602        3.1430050178       -1.5769353026
  C         7.8391322765        3.5112751974        0.0328338342
  H         7.8205844944        3.2647204535        1.0933413552
  H         8.6378963407        2.9473436869       -0.4527022527
  C         8.1123177255        5.0010688638       -0.1319473745
  O         7.4720339298        5.8218380174        0.5281746834
  O         8.9741202123        5.3800977991       -0.9307185297
      17
 i =       8, E =       -0.2450077327
  N         3.4902456733        1.9170288823       -0.8328485282
  H         3.5561878018        1.7076726885       -1.8104764079
  H         3.3870477710        2.9152625559       -0.7058596414
  H         2.8012742451        1.3168461421       -0.4141903225
  C         4.7512732492        1.5872714876       -0.1997835017
  H         4.5613915585        1.0000027845        0.7065963305
  H         5.3570151126        0.9977257858       -0.8908714051
  C         5.4988673256        2.8648675715        0.1727085274
  O         5.1086474733        3.5532505477        1.1150342316
  N         6.5747518476        3.1498665252       -0.5568808804
  H         6.5458139320        3.1138021122       -1.5667201486
  C         7.8373821061        3.5151388311        0.0549501148
  H         7.8041429742        3.2861840440        1.1192531422
  H         8.6425101995        2.9419523629       -0.4089785736
  C         8.1124204060        5.0018944450       -0.1326104008
  O         7.4600752457        5.8315569092        0.5065833924
  O         8.9852767557        5.3627920137       -0.9293469682
      17
 i =       9, E =       -0.2456690575
  N         3.5053407937        1.9007525757       -0.8429466783
  H         3.5846524202        1.6717868762       -1.8143116177
  H         3.3990130144        2.9006042195       -0.7353669661
  H         2.8065132437        1.3132219817       -0.4242884618
  C         4.7556760265        1.5851390859       -0.1816547086
  H         4.5488416857        1.0170405509        0.7345099551
  H         5.3720211043        0.9799168366       -0.8501805839
  C         5.4947457383        2.8731306539        0.1738490518
  O         5.0870779384        3.5792267714        1.0960035253
  N         6.5824238341        3.1418091726       -0.5447033236
  H         6.5736117836        3.0803542496       -1.5539302745
  C         7.8349393360        3.5199936716        0.0802105089
  H         7.7847486635        3.3115019032        1.1482001125
  H         8.6471113351        2.9368343345       -0.3585310708
  C         8.1124592070        5.0026843027       -0.1333821898
  O         7.4469636258        5.8421301208        0.4812077101
  O         8.9977647053        5.3430066591       -0.9270000822
      17
 i =      10, E =       -0.2462921680
  N         3.5228241020        1.8819271804       -0.8535266694
  H         3.6174752297        1.6304951195       -1.8172539446
  H         3.4136717430        2.8831517473       -0.7687096603
  H         2.8130107893        1.3083829470       -0.4357329424
  C         4.7602801517        1.5830606568       -0.1606956143
  H         4.5340549209        1.0373418639        0.7657105661
  H         5.3885015268        0.9606812519       -0.8027220835
  C         5.4899087562        2.8824010470        0.1748338633
  O         5.0627736094        3.6088089992        1.0729391715
  N         6.5911237344        3.1329390677       -0.5304679618
  H         6.6049095425        3.0422841448       -1.5378650661
  C         7.8316089244        3.5260867052        0.1089155730
  H         7.7619189648        3.3413019854        1.1802369876
  H         8.6514406921        2.9323671707       -0.3005755874
  C         8.1124287900        5.0033209893       -0.1343025272
  O         7.4328423715        5.8535196522        0.4514109382
  O         9.0116475067        5.3205768556       -0.9232974373
      17
 i =      11, E =       -0.2468550764
  N         3.5430943794        1.8600009932       -0.8644661152
  H         3.6554674717        1.5827761116       -1.8185834260
  H         3.4316689740        2.8622396573       -0.8064138968
  H         2.8210658146        1.3019594492       -0.4485914131
  C         4.7649310882        1.5812059425       -0.1363382528
  H         4.5164650998        1.0617023427        0.8006113407
  H         5.4064312483        0.9401137780       -0.7470285441
  C         5.4842653193        2.8928379910        0.1756097141
  O         5.0354245163        3.6425071790        1.0447246461
  N         6.6008738773        3.1231147925       -0.5136686067
  H         6.6401884073        2.9988961112       -1.5174401162
  C         7.8270936998        3.5337885880        0.1416598720
  H         7.7348503301        3.3766372463        1.2156506500
  H         8.6551647234        2.9290298811       -0.2336745022
  C         8.1123315256        5.0036757841       -0.1354226357
  O         7.4178025562        5.8657657861        0.4161341527
  O         9.0271489541        5.2951515148       -0.9177115697
      17
 i =      12, E =       -0.2473389397
  N         3.5667829371        1.8341118109       -0.8756205396
  H         3.6998994681        1.5269996308       -1.8172631591
  H         3.4539461638        2.8367932314       -0.8493758165
  H         2.8311048761        1.2933956557       -0.4629761209
  C         4.7694138314        1.5798445453       -0.1077019930
  H         4.4951618051        1.0913644678        0.8398712639
  H         5.4257694188        0.9183299486       -0.6808182628
  C         5.4776470097        2.9047008427        0.1760932144
  O         5.0045186512        3.6810867650        1.0096535041
  N         6.6117513138        3.1121061367       -0.4934946893
  H         6.6802184097        2.9491079105       -1.4909810674
  C         7.8209202224        3.5436799983        0.1794122241
  H         7.7022757419        3.4191722917        1.2549555306
  H         8.6577823267        2.9275280125       -0.1555152498
  C         8.1121794676        5.0036213284       -0.1368065133
  O         7.4018926856        5.8789563209        0.3737258285
  O         9.0447030188        5.2661353410       -0.9094690260
      17
 i =      13, E =       -0.2477285063
  N         3.5948587629        1.8029551583       -0.8867321877
  H         3.7526715852        1.4607017097       -1.8116643826
  H         3.4819127774        2.8050903690       -0.8989280740
  H         2.8437517988        1.2818613523       -0.4790392276
  C         4.7733898480        1.5794332010       -0.0734765289
  H         4.4687080279        1.1282566414        0.8843939386
  H         5.4463660091        0.8955960369       -0.6006360238
  C         5.4697723269        2.9183821712        0.1761206022
  O         4.9693117359        3.7255964232        0.9651055306
  N         6.6238963810        3.0996074547       -0.4686773249
  H         6.7261336855        2.8913589536       -1.4558730840
  C         7.8123218494        3.5567093410        0.2236316663
  H         7.6622336477        3.4714867723        1.2988489271
  H         8.6584517686        2.9290254745       -0.0625723797
  C         8.1120002405        5.0030358587       -0.1385376281
  O         7.3851552437        5.8931567117        0.3216696588
  O         9.0650176003        5.2326063023       -0.8973776506
      17
 i =      14, E =       -0.2480115446
  N         3.6287926117        1.7645745273       -0.8972458966
  H         3.8165639473        1.3802604224       -1.7990304355
  H         3.5177477795        2.7643603578       -0.9568814233
  H         2.8599449913        1.2661057545       -0.4969330540
  C         4.7762733699        1.5807809992       -0.0317448592
  H         4.4348362524        1.1753958653        0.9352724129
  H         5.4677615867        0.8726060793       -0.5012781058
  C         5.4602032983        2.9344650342        0.1753615467
  O         4.9288192407        3.7773652715        0.9069894335
  N         6.6374914721        3.0852810551       -0.4372352050
  H         6.7795190453        2.8235100257       -1.4079457603
  C         7.8000359826        3.5744768969        0.2764221200
  H         7.6116883140        3.5375755007        1.3480560596
  H         8.6556583839        2.9355899934        0.0503966459
  C         8.1118472352        5.0017935698       -0.1407289192
  O         7.3677329058        5.9082485294        0.2561446482
  O         9.0891502092        5.1932113799       -0.8795170265
      17
 i =      15, E =       -0.2481773422
  N         3.6708033869        1.7160430631       -0.9059158430
  H         3.8955697279        1.2804683664       -1.7744247710
  H         3.5649301769        2.7100886571       -1.0254434982
  H         2.8811320714        1.2442115563       -0.5166769470
  C         4.7769858834        1.5853766656        0.0202631245
  H         4.3899363864        1.2375669437        0.9935539409
  H         5.4887405285        0.8510924707       -0.3748995398
  C         5.4482891386        2.9538043203        0.1731576409
  O         4.8819060924        3.8378699118        0.8287771414
  N         6.6526705735        3.0688866047       -0.3960538747
  H         6.8424483917        2.7428130003       -1.3403722932
  C         7.7819277872        3.5997522316        0.3406963170
  H         7.5459053786        3.6236716944        1.4028802745
  H         8.6465548776        2.9510771583        0.1910530026
  C         8.1118167015        4.9997370459       -0.1435324494
  O         7.3501412756        5.9235505892        0.1713240842
  O         9.1185773952        5.1460687317       -0.8526704274
      17
 i =      16, E =       -0.2482147586
  N         3.7241947488        1.6530291761       -0.9099434699
  H         3.9952285557        1.1541182135       -1.7286414792
  H         3.6291627712        2.6348106058       -1.1067161322
  H         2.9095809057        1.2131965138       -0.5377860200
  C         4.7734596675        1.5960517615        0.0864422946
  H         4.3282044412        1.3224467117        1.0594806027
  H         5.5063159215        0.8351975393       -0.2097387932
  C         5.4331037400        2.9776149678        0.1681992179
  O         4.8276878063        3.9081843164        0.7198517905
  N         6.6692539721        3.0506424915       -0.3402045814
  H         6.9172769332        2.6462162777       -1.2416944748
  C         7.7542755902        3.6374333162        0.4202057187
  H         7.4574531869        3.7395594355        1.4619858090
  H         8.6256185428        2.9829243643        0.3702691918
  C         8.1120790328        4.9966251576       -0.1471404898
  O         7.3339325328        5.9369237641        0.0583229155
  O         9.1551794037        5.0887870963       -0.8112713147
      17
 i =      17, E =       -0.2481105737
  N         3.7936384727        1.5694438560       -0.9030922399
  H         4.1224551958        0.9922829934       -1.6441343525
  H         3.7198444751        2.5261955451       -1.2008578155
  H         2.9487987073        1.1684773943       -0.5582966919
  C         4.7616457368        1.6183026159        0.1717934303
  H         4.2403942297        1.4422375344        1.1302678212
  H         5.5134321972        0.8345490360        0.0111182386
  C         5.4134490146        3.0074667037        0.1578764301
  O         4.7668618762        3.9871861299        0.5629602419
  N         6.6860249953        3.0321983642       -0.2620010165
  H         7.0055359015        2.5318771169       -1.0925092108
  C         7.7104699658        3.6962669500        0.5188615280
  H         7.3348566757        3.9003246977        1.5192079176
  H         8.5819464870        3.0457450245        0.6021757754
  C         8.1129351966        4.9920455266       -0.1517483252
  O         7.3232730724        5.9426636359       -0.0959979657
  O         9.2008324808        5.0190181884       -0.7455361213
      17
 i =      18, E =       -0.2478496782
  N         3.8845246237        1.4583477012       -0.8719564336
  H         4.2827802358        0.7880669022       -1.4882880755
  H         3.8515154405        2.3652102757       -1.3004469538
  H         3.0036693100        1.1037233734       -0.5724168092
  C         4.7337989512        1.6625573919        0.2807379287
  H         4.1129988673        1.6146852919        1.1942023360
  H         5.4942194337        0.8705534764        0.3080082977
  C         5.3882488795        3.0447524606        0.1371453823
  O         4.7055577093        4.0664211537        0.3320369454
  N         6.6989167182        3.0190510113       -0.1506053831
  H         7.1040184475        2.4044134768       -0.8616244161
  C         7.6391640412        3.7912593378        0.6373961419
  H         7.1621865022        4.1268107978        1.5558219876
  H         8.4945273169        3.1675543482        0.8997276453
  C         8.1148919677        4.9853030565       -0.1573788152
  O         7.3283908621        5.9269298496       -0.3084234835
  O         9.2555868542        4.9369010135       -0.6389400551
      17
 i =      19, E =       -0.2474220255
  N         3.9980612230        1.3184995052       -0.7918011462
  H         4.4689391357        0.5518040655       -1.2104674289
  H         4.0404127030        2.1308458383       -1.3772901433
  H         3.0782452921        1.0138384193       -0.5664722628
  C         4.6774173709        1.7455083106        0.4095630746
  H         3.9330385233        1.8565815671        1.2188994536
  H         5.4180372042        0.9841218360        0.6883694552
  C         5.3583420167        3.0883008355        0.0977778186
  O         4.6638160134        4.1189253532       -0.0003574755
  N         6.6976962032        3.0249021843        0.0033343388
  H         7.1945097991        2.2885027977       -0.5111251507
  C         7.5247277305        3.9429379967        0.7628008019
  H         6.9263578511        4.4357699909        1.5270784519
  H         8.3291396502        3.3936343589        1.2542152753
  C         8.1186047710        4.9754910517       -0.1633362411
  O         7.3705124916        5.8613141093       -0.5884836726
  O         9.3121280744        4.8524144093       -0.4694321547
      17
 i =      20, E =       -0.2468496275
  N         4.1171006427        1.1729901424       -0.6386779753
  H         4.6373998791        0.3417633191       -0.7815145026
  H         4.2800783072        1.8325268582       -1.3738221245
  H         3.1661591073        0.9076445752       -0.5210164083
  C         4.5841142197        1.8781327208        0.5297957613
  H         3.7129285040        2.1507233250        1.1504516589
  H         5.2523426292        1.2179656209        1.0962957554
  C         5.3305063928        3.1290881481        0.0340121287
  O         4.6793810254        4.0947043471       -0.4175922485
  N         6.6669195188        3.0701622308        0.1866533091
  H         7.2336228307        2.2418452954       -0.0452497607
  C         7.3630564157        4.1561669956        0.8526745254
  H         6.6486085873        4.7981549625        1.3685897384
  H         8.0621900445        3.7542922097        1.5893557118
  C         8.1240430511        4.9626143729       -0.1673976697
  O         7.4748145422        5.7126457254       -0.9007325806
  O         9.3480852360        4.7953694829       -0.2333166091
