         0         -0.282134782         -0.241594725         -0.221136537         -0.338412771         -0.256155168         12.546897487         13.139411248         19.067383903         17.494861184
         1         -0.282134782         -0.241557819         -0.220770998         -0.338311910         -0.256155077         12.548926663         13.150876265         19.055239584         17.490312559
         2         -0.282134782         -0.241713826         -0.221224481         -0.338320850         -0.256155066         12.550669436         13.169907348         19.031231481         17.491576596
         3         -0.282134782         -0.242033914         -0.222070223         -0.338341784         -0.256155028         12.552054978         13.202601451         18.991730276         17.494040177
         4         -0.282134782         -0.242488267         -0.223035824         -0.338358052         -0.256154962         12.553219917         13.247171624         18.938796984         17.497575566
         5         -0.282134782         -0.243043945         -0.223924007         -0.338355504         -0.256154868         12.554377856         13.302120601         18.873941752         17.502051056
         6         -0.282134782         -0.243668609         -0.224578997         -0.338329277         -0.256154745         12.555789580         13.366332412         18.798171228         17.507345968
         7         -0.282134782         -0.244332354         -0.224857351         -0.338279386         -0.256154593         12.557728140         13.439002236         18.712243509         17.513413015
         8         -0.282134782         -0.245007733         -0.224646303         -0.338205360         -0.256154412         12.560443763         13.519489476         18.616998095         17.520287710
         9         -0.282134782         -0.245669057         -0.223896731         -0.338107624         -0.256154200         12.564137771         13.607213914         18.513621521         17.528022601
        10         -0.282134782         -0.246292168         -0.222639594         -0.337990872         -0.256153947         12.568951503         13.701627463         18.403741709         17.536626410
        11         -0.282134782         -0.246855076         -0.220983085         -0.337865345         -0.256153641         12.574972010         13.802221931         18.289363064         17.546045200
        12         -0.282134782         -0.247338940         -0.219098799         -0.337746303         -0.256153265         12.582259304         13.908531208         18.172723700         17.556159963
        13         -0.282134782         -0.247728506         -0.217201820         -0.337652389         -0.256152800         12.590910719         14.020112720         18.056112595         17.566769656
        14         -0.282134782         -0.248011545         -0.215526466         -0.337602873         -0.256152233         12.601198393         14.136514926         17.941679342         17.577556084
        15         -0.282134782         -0.248177342         -0.214300016         -0.337613846         -0.256151562         12.613861787         14.257243178         17.831281327         17.588060258
        16         -0.282134782         -0.248214759         -0.213718127         -0.337694427         -0.256150814         12.630747680         14.381731597         17.726380066         17.597651794
        17         -0.282134782         -0.248110574         -0.213924809         -0.337843197         -0.256150097         12.656221870         14.509335539         17.627961099         17.605513087
        18         -0.282134782         -0.247849678         -0.215001312         -0.338044574         -0.256149702         12.700001445         14.639372668         17.536449729         17.610605232
        19         -0.282134782         -0.247422025         -0.216966451         -0.338260471         -0.256150326         12.780398540         14.771246615         17.451172506         17.612134825
        20         -0.282134782         -0.246849627         -0.219790104         -0.338367534         -0.256152928         12.915451496         14.904659528         17.368979456         17.610166651
