      17
 i =       0, E =       -0.2211365369
  N         4.6738504722        1.1780153389       -0.2805718637
  H         3.9633555848        0.5855101703        0.1225108080
  H         5.5648054044        0.7055834929       -0.2198309403
  H         4.3435148803        1.5221063722       -1.1708334867
  C         4.8075315281        2.3537070682        0.5566959148
  H         3.8384507576        2.6055393537        0.9865853893
  H         5.5192051227        2.1516273074        1.3565024320
  C         5.3075704223        3.5349104472       -0.2631801013
  O         4.8240725547        4.6537640014       -0.1030597207
  N         6.2785707611        3.2833870764       -1.1430842643
  H         6.0461168254        3.0460717815       -2.0977342623
  C         7.6793318735        3.3385548442       -0.7757209247
  H         7.9487984087        2.4314673232       -0.2348429202
  H         8.2874939886        3.4200090002       -1.6762258177
  C         7.9476402807        4.5434371960        0.1142572306
  O         8.6837604755        4.4437119273        1.0940857511
  O         7.4328534464        5.6298561513       -0.1368291462
      17
 i =       1, E =       -0.2207709978
  N         4.6778702096        1.1805059391       -0.2803806688
  H         3.9622533670        0.5841571598        0.1279014780
  H         5.5640007194        0.7067810806       -0.2195237958
  H         4.3452888691        1.5265582793       -1.1676847114
  C         4.8074318054        2.3541473366        0.5579485592
  H         3.8358202401        2.6085198590        0.9867927455
  H         5.5190717543        2.1540182171        1.3549101651
  C         5.3061170414        3.5332855961       -0.2635769905
  O         4.8225809877        4.6535344408       -0.1033038256
  N         6.2786585676        3.2824455397       -1.1425299928
  H         6.0408431055        3.0449689960       -2.0957897771
  C         7.6782415477        3.3377448646       -0.7775987999
  H         7.9495586197        2.4343582339       -0.2399776056
  H         8.2865398479        3.4250465553       -1.6745302892
  C         7.9439952830        4.5432901801        0.1135049566
  O         8.6855998048        4.4428398862        1.0948332626
  O         7.4341562268        5.6301697809       -0.1370293188
      17
 i =       2, E =       -0.2212244811
  N         4.6784661309        1.1798443056       -0.2780106381
  H         3.9678612975        0.5854298157        0.1359142467
  H         5.5732923353        0.7029975645       -0.2168693375
  H         4.3547254559        1.5240352989       -1.1667935107
  C         4.8068241454        2.3558560629        0.5578898398
  H         3.8368405455        2.6142779005        0.9813039248
  H         5.5161746458        2.1582405003        1.3582677276
  C         5.3062924029        3.5338984779       -0.2649868242
  O         4.8216847107        4.6535715297       -0.1074523469
  N         6.2793964683        3.2815932896       -1.1422592748
  H         6.0417969698        3.0480763378       -2.0926483713
  C         7.6786291559        3.3372732275       -0.7756574851
  H         7.9490246567        2.4380981235       -0.2384130518
  H         8.2849336726        3.4262182067       -1.6689729084
  C         7.9439543810        4.5432609208        0.1143834171
  O         8.6848899092        4.4423821346        1.0965388554
  O         7.4333185168        5.6297325480       -0.1391534592
      17
 i =       3, E =       -0.2220702230
  N         4.6820173744        1.1773248007       -0.2688648957
  H         3.9754600397        0.5880263830        0.1510602241
  H         5.5865049183        0.6978150067       -0.2056758053
  H         4.3714960664        1.5170445380       -1.1642860506
  C         4.8050194784        2.3620747883        0.5578060977
  H         3.8354963509        2.6262770378        0.9696536715
  H         5.5081719826        2.1693146672        1.3654404691
  C         5.3072264403        3.5358669444       -0.2700426172
  O         4.8186222734        4.6537347308       -0.1229004433
  N         6.2826703555        3.2784149749       -1.1407867054
  H         6.0485457503        3.0464579106       -2.0876249253
  C         7.6803578658        3.3358913529       -0.7681235595
  H         7.9489002026        2.4430962259       -0.2280962677
  H         8.2870625796        3.4232634074       -1.6554860940
  C         7.9437572187        4.5438523039        0.1175890872
  O         8.6821150547        4.4419661193        1.1030310656
  O         7.4303531884        5.6285453172       -0.1470501573
      17
 i =       4, E =       -0.2230358238
  N         4.6892358039        1.1732912959       -0.2538540976
  H         3.9843055544        0.5917518818        0.1726749206
  H         5.6021243045        0.6919964221       -0.1870100051
  H         4.3943340385        1.5062108823       -1.1597731222
  C         4.8024593650        2.3721247667        0.5575664350
  H         3.8320474639        2.6435788092        0.9527854518
  H         5.4957082331        2.1863775231        1.3756629180
  C         5.3086350334        3.5388690355       -0.2780781592
  O         4.8135415393        4.6540480568       -0.1479766016
  N         6.2879261664        3.2735555846       -1.1379539422
  H         6.0596313550        3.0412181319       -2.0814360725
  C         7.6826255749        3.3341297786       -0.7559403496
  H         7.9489178715        2.4490703762       -0.2106450837
  H         8.2920269487        3.4171961997       -1.6357497888
  C         7.9432219652        4.5450168583        0.1226319822
  O         8.6775625208        4.4412950898        1.1133278845
  O         7.4256377886        5.6263261723       -0.1597498675
      17
 i =       5, E =       -0.2239240067
  N         4.7004732863        1.1683334701       -0.2340917319
  H         3.9941127284        0.5963985906        0.2000711785
  H         5.6192838649        0.6860647284       -0.1620454971
  H         4.4221422799        1.4920479090       -1.1525434805
  C         4.7997710189        2.3850621602        0.5571457977
  H         3.8270483559        2.6649594809        0.9317673748
  H         5.4797323874        2.2084415279        1.3881583701
  C         5.3102066308        3.5425117181       -0.2882283954
  O         4.8065686003        4.6544299032       -0.1807781969
  N         6.2945625045        3.2677200799       -1.1337747042
  H         6.0735046838        3.0336950770       -2.0746235687
  C         7.6847149690        3.3325351310       -0.7402278640
  H         7.9488493648        2.4559291015       -0.1879699459
  H         8.2987464228        3.4093043991       -1.6115649991
  C         7.9421648837        4.5467565713        0.1289757322
  O         8.6715739028        4.4401330216        1.1262468105
  O         7.4195895294        5.6227782377       -0.1760508983
      17
 i =       6, E =       -0.2245789972
  N         4.7155776401        1.1630434523       -0.2105101620
  H         4.0050911330        0.6019184965        0.2325396636
  H         5.6377995231        0.6803002008       -0.1317876553
  H         4.4541132390        1.4749610339       -1.1418988351
  C         4.7975496118        2.3999508430        0.5566094010
  H         3.8211797287        2.6891905492        0.9074895106
  H         5.4612373623        2.2346475598        1.4022723064
  C         5.3116991740        3.5465249241       -0.2996868700
  O         4.7978254682        4.6546814510       -0.2196468140
  N         6.3020298753        3.2614908063       -1.1284736197
  H         6.0889297113        3.0251550968       -2.0675346569
  C         7.6862177286        3.3315200007       -0.7220363203
  H         7.9485652861        2.4636889174       -0.1618068201
  H         8.3062814509        3.4008000069       -1.5844972667
  C         7.9404887605        4.5489964248        0.1361832114
  O         8.6644459895        4.4383814376        1.1406958310
  O         7.4126074700        5.6177565895       -0.1947653566
      17
 i =       7, E =       -0.2248573505
  N         4.7340652279        1.1578620150       -0.1836504532
  H         4.0177357662        0.6084551783        0.2693943906
  H         5.6578679856        0.6748775298       -0.0969344059
  H         4.4896776025        1.4553060161       -1.1273757123
  C         4.7961964288        2.4160630291        0.5560712992
  H         3.8151054349        2.7152103270        0.8805351009
  H         5.4410668296        2.2643969948        1.4175067798
  C         5.3129860943        3.5508200523       -0.3118816514
  O         4.7874363656        4.6545128696       -0.2633885494
  N         6.3098699353        3.2552594761       -1.1224026449
  H         6.1051000650        3.0166350614       -2.0604075152
  C         7.6870409449        3.3312936459       -0.7022375106
  H         7.9480189838        2.4723797632       -0.1334981028
  H         8.3139671811        3.3926289867       -1.5557425368
  C         7.9381744788        4.5515408376        0.1439445347
  O         8.6563827695        4.4360903048        1.1558290496
  O         7.4050590432        5.6113100118       -0.2148596843
      17
 i =       8, E =       -0.2246463026
  N         4.7553832569        1.1530800882       -0.1536530125
  H         4.0325371155        0.6162595671        0.3100843600
  H         5.6797216139        0.6700020441       -0.0577970929
  H         4.5283972623        1.4333947562       -1.1087386208
  C         4.7958642454        2.4329629824        0.5556713582
  H         3.8093707225        2.7421752771        0.8512138261
  H         5.4198175142        2.2973931140        1.4335098712
  C         5.3140464257        3.5554145540       -0.3245275018
  O         4.7755347415        4.6535684291       -0.3112960916
  N         6.3177422238        3.2492055793       -1.1159213624
  H         6.1215856553        3.0088529699       -2.0534569118
  C         7.6872888397        3.3318349755       -0.6815065090
  H         7.9472040566        2.4819721843       -0.1039346101
  H         8.3214226867        3.3853929132       -1.5261370555
  C         7.9352115844        4.5541419901        0.1520238180
  O         8.6474762697        4.4334752345        1.1710891405
  O         7.3972932190        5.6036247028       -0.2355168814
      17
 i =       9, E =       -0.2238967307
  N         4.7790713680        1.1489328352       -0.1203245903
  H         4.0497499839        0.6256152834        0.3543408749
  H         5.7034206397        0.6659856776       -0.0141945622
  H         4.5699010400        1.4094385882       -1.0858062455
  C         4.7964853150        2.4505212171        0.5555646812
  H         3.8043191634        2.7694715892        0.8196327813
  H         5.3977790474        2.3336787531        1.4500627733
  C         5.3149236405        3.5603169802       -0.3376015241
  O         4.7622894652        4.6514215795       -0.3631395308
  N         6.3254727471        3.2432598229       -1.1093090257
  H         6.1382767582        3.0021140967       -2.0468906566
  C         7.6871390248        3.3328892097       -0.6602960874
  H         7.9461180790        2.4923394390       -0.0735115693
  H         8.3285393136        3.3792961192       -1.4961694414
  C         7.9315512388        4.5565979724        0.1602208988
  O         8.6376725398        4.4309662856        1.1862062986
  O         7.3896496493        5.5949465093       -0.2561953434
      17
 i =      10, E =       -0.2226395942
  N         4.8047575802        1.1457045623       -0.0831540052
  H         4.0692696505        0.6368666789        0.4023056511
  H         5.7287882213        0.6632867011        0.0347126934
  H         4.6138923502        1.3834725435       -1.0582270420
  C         4.7978190543        2.4689116744        0.5558956151
  H         3.8000206734        2.7967425495        0.7856932622
  H         5.3748567158        2.3737261962        1.4670631717
  C         5.3157003471        3.5654372371       -0.3513220298
  O         4.7479641358        4.6475318974       -0.4192389736
  N         6.3331175322        3.2370370102       -1.1027177775
  H         6.1554199203        2.9961834582       -2.0408564862
  C         7.6867903737        3.3339861889       -0.6387456597
  H         7.9447354672        2.5032609301       -0.0420172169
  H         8.3355056761        3.3740749340       -1.4659077576
  C         7.9271063578        4.5588189138        0.1683921793
  O         8.6266979875        4.4292901011        1.2012120260
  O         7.3824618351        5.5855202486       -0.2767239393
      17
 i =      11, E =       -0.2209830854
  N         4.8320366125        1.1438112812       -0.0412175061
  H         4.0905762415        0.6505631646        0.4546225237
  H         5.7553961908        0.6625706316        0.0906572361
  H         4.6602069369        1.3552928038       -1.0252619907
  C         4.7994544338        2.4886237436        0.5567451696
  H         3.7962236962        2.8239362105        0.7489663320
  H         5.3504509183        2.4185974209        1.4844823445
  C         5.3165257577        3.5705256176       -0.3661889779
  O         4.7330157913        4.6411555022       -0.4806548348
  N         6.3410278609        3.2297463320       -1.0961360522
  H         6.1737641707        2.9901081169       -2.0353490820
  C         7.6864979682        3.3344693746       -0.6165170533
  H         7.9429762762        2.5144751478       -0.0084324645
  H         8.3428778157        3.3689031114       -1.4348150060
  C         7.9217531649        4.5608744864        0.1764979052
  O         8.6139423825        4.4295960626        1.2165017306
  O         7.3760747321        5.5755304390       -0.2974319829
      17
 i =      12, E =       -0.2190987990
  N         4.8603176293        1.1438881592        0.0070119593
  H         4.1126613889        0.6676887115        0.5125270920
  H         5.7824983482        0.6648491558        0.1565719805
  H         4.7088761721        1.3244200851       -0.9855428556
  C         4.8007430918        2.5105047052        0.5580586391
  H         3.7923435872        2.8513490776        0.7084648444
  H         5.3232873368        2.4701711034        1.5022664303
  C         5.3176877874        3.5751121376       -0.3830862251
  O         4.7182422439        4.6311840029       -0.5494747799
  N         6.3499315662        3.2200882061       -1.0893238950
  H         6.1947865616        2.9819782921       -2.0300877548
  C         7.6866463382        3.3335217797       -0.5925797980
  H         7.9406512752        2.5257895529        0.0293485995
  H         8.3516727541        3.3622859860       -1.4014612696
  C         7.9152980464        4.5630509579        0.1846391996
  O         8.5982964783        4.4336438587        1.2329290159
  O         7.3708875409        5.5650167660       -0.3193012140
      17
 i =      13, E =       -0.2172018204
  N         4.8886668834        1.1469466519        0.0639162395
  H         4.1338629256        0.6899721956        0.5779697922
  H         5.8088430953        0.6717562655        0.2369812467
  H         4.7601564728        1.2901025849       -0.9367259828
  C         4.8006859734        2.5358414295        0.5595478596
  H         3.7874860327        2.8796392976        0.6623365139
  H         5.2911906907        2.5314403253        1.5201336410
  C         5.3197103352        3.5784102971       -0.4034141467
  O         4.7050093058        4.6158608057       -0.6291645388
  N         6.3610572763        3.2061331030       -1.0816835434
  H         6.2209733918        2.9686106712       -2.0243244590
  C         7.6877986391        3.3301897115       -0.5649492219
  H         7.9373578220        2.5372705201        0.0748819833
  H         8.3634637593        3.3519594449       -1.3631219022
  C         7.9074143696        4.5659211586        0.1930838405
  O         8.5779244657        4.4440809829        1.2518732296
  O         7.3674215883        5.5537469946       -0.3441414791
      17
 i =      14, E =       -0.2155264661
  N         4.9155760538        1.1546898752        0.1330466679
  H         4.1515480340        0.7203546008        0.6537670579
  H         5.8322927742        0.6860732247        0.3385125958
  H         4.8144920681        1.2513955906       -0.8749450454
  C         4.7977970499        2.5664970657        0.5605211552
  H         3.7805068246        2.9097833038        0.6074383939
  H         5.2507697528        2.6069246402        1.5371651376
  C         5.3234977748        3.5791296956       -0.4292399923
  O         4.6956347840        4.5922694804       -0.7249833457
  N         6.3763096871        3.1851522611       -1.0720024929
  H         6.2561857912        2.9451030735       -2.0164653750
  C         7.6906897045        3.3234301524       -0.5303140817
  H         7.9322723635        2.5495864460        0.1336788587
  H         8.3804675355        3.3348071982       -1.3151656779
  C         7.8975459948        4.5704396498        0.2022689658
  O         8.5499230379        4.4648760959        1.2752150448
  O         7.3664450376        5.5410192762       -0.3748103022
      17
 i =      15, E =       -0.2143000157
  N         4.9385146208        1.1701367758        0.2195149664
  H         4.1615349481        0.7637891139        0.7436995869
  H         5.8490696804        0.7127562774        0.4705555599
  H         4.8723373560        1.2074235411       -0.7939263800
  C         4.7899381641        2.6051215929        0.5595302509
  H         3.7701523459        2.9429082655        0.5386638250
  H         5.1969575833        2.7032714172        1.5509531808
  C         5.3306017807        3.5751101111       -0.4634629357
  O         4.6941041363        4.5553641130       -0.8444577499
  N         6.3984993002        3.1533700713       -1.0579217653
  H         6.3061719660        2.9041795648       -2.0032524237
  C         7.6961180399        3.3122590970       -0.4834232949
  H         7.9237021169        2.5646700430        0.2139424408
  H         8.4055809760        3.3068561553       -1.2499994525
  C         7.8847511334        4.5781030892        0.2127457095
  O         8.5097680413        4.5020489105        1.3050960253
  O         7.3692322243        5.5252979288       -0.4155082022
      17
 i =      16, E =       -0.2137181267
  N         4.9530224518        1.1988616886        0.3303527689
  H         4.1570293079        0.8286805001        0.8522729391
  H         5.8522234206        0.7610008822        0.6459042906
  H         4.9336190270        1.1581216262       -0.6835679810
  C         4.7741207045        2.6554227393        0.5536124053
  H         3.7554428291        2.9797930192        0.4478262757
  H         5.1223898662        2.8300670963        1.5557711895
  C         5.3437428070        3.5626115922       -0.5099091364
  O         4.7074666913        4.4960865211       -0.9977071106
  N         6.4316038080        3.1056645121       -1.0348247880
  H         6.3792405371        2.8353080401       -1.9779496434
  C         7.7045905798        3.2962146192       -0.4160548895
  H         7.9080886910        2.5870971885        0.3275597581
  H         8.4421776364        3.2636004648       -1.1551625844
  C         7.8674572623        4.5912315638        0.2249939231
  O         8.4503880794        4.5648977037        1.3430876591
  O         7.3781132129        5.5034775739       -0.4721307075
      17
 i =      17, E =       -0.2139248090
  N         4.9509223679        1.2513964603        0.4742101091
  H         4.1267794735        0.9293492939        0.9831873313
  H         5.8285905265        0.8482963390        0.8803489167
  H         4.9962446601        1.1062463301       -0.5279414789
  C         4.7464166251        2.7222898835        0.5367022491
  H         3.7367496840        3.0194385895        0.3220152725
  H         5.0169281659        3.0004412133        1.5386410553
  C         5.3677957029        3.5349854467       -0.5729525350
  O         4.7484870418        4.3978259303       -1.1965953074
  N         6.4808279204        3.0355298946       -0.9935855995
  H         6.4867619687        2.7240386488       -1.9264175290
  C         7.7153025683        3.2767038071       -0.3155082167
  H         7.8778395186        2.6270066502        0.4908392051
  H         8.4930181063        3.2015110160       -1.0101171797
  C         7.8430963843        4.6134142425        0.2388581902
  O         8.3607917346        4.6678059984        1.3877583510
  O         7.3976119474        5.4693823570       -0.5523407101
      17
 i =      18, E =       -0.2150013116
  N         4.9173400330        1.3471731187        0.6578975912
  H         4.0527375039        1.0891040216        1.1336799950
  H         5.7536701817        1.0071787609        1.1869775272
  H         5.0522964960        1.0624443240       -0.3042328844
  C         4.7027225464        2.8107648867        0.4967237511
  H         3.7186491012        3.0552855864        0.1425267709
  H         4.8691136010        3.2290691042        1.4716981397
  C         5.4112949974        3.4806806293       -0.6552309211
  O         4.8397834821        4.2309626236       -1.4488955976
  N         6.5513788807        2.9367420040       -0.9166724188
  H         6.6416191117        2.5540773290       -1.8196677189
  C         7.7234831117        3.2605153232       -0.1637246916
  H         7.8171647363        2.7056008713        0.7221039663
  H         8.5564171395        3.1231791450       -0.7826223173
  C         7.8078278605        4.6498428248        0.2520344274
  O         8.2251363984        4.8314211447        1.4282612478
  O         7.4364577025        5.4111400112       -0.6637798169
      17
 i =      19, E =       -0.2169664511
  N         4.8293118020        1.5162239937        0.8726319606
  H         3.9119953994        1.3375148623        1.2791961802
  H         5.5890092014        1.2884309711        1.5527347809
  H         5.0807180763        1.0548607283        0.0085146549
  C         4.6429188468        2.9205042703        0.4131843077
  H         3.7157018952        3.0676302121       -0.1085877035
  H         4.6761893912        3.5187867119        1.3040189827
  C         5.4865216014        3.3832055508       -0.7498233573
  O         5.0145660645        3.9521037722       -1.7373007808
  N         6.6425043491        2.8112811283       -0.7758324395
  H         6.8477593117        2.3211589772       -1.6071358493
  C         7.7152935718        3.2665023262        0.0562790447
  H         7.6981068546        2.8602032823        1.0256693334
  H         8.6162965475        3.0504590163       -0.4344455712
  C         7.7576924602        4.7057431299        0.2569771561
  O         8.0279523953        5.0755840218        1.4316869181
  O         7.5088815905        5.3096017836       -0.8052688751
      17
 i =      20, E =       -0.2197901037
  N         4.6727327018        1.7763261273        1.0664840600
  H         3.7018323325        1.6769286270        1.3565260582
  H         5.3105708653        1.7227780581        1.8898147590
  H         5.0472532186        1.1287160799        0.3874243119
  C         4.5812793550        3.0320839978        0.2697302019
  H         3.7533828186        3.0227840459       -0.4145508338
  H         4.4722861162        3.8234358511        0.9870626784
  C         5.5984918996        3.2359461867       -0.8271131536
  O         5.2882131369        3.5422892454       -1.9816171794
  N         6.7337944245        2.6872439733       -0.5526953382
  H         7.0715069119        2.0707624379       -1.2478819179
  C         7.6682825049        3.3246049908        0.3286438297
  H         7.4970535717        3.1217388854        1.3480180760
  H         8.6328613439        3.0362745988        0.0284959739
  C         7.6951803648        4.7776457320        0.2403881037
  O         7.7815647656        5.3828766190        1.3425435483
  O         7.6241109707        5.1526030896       -0.9460725340
