      17
 i =       0, E =       -0.3384127710
  N         6.1539523201        1.8656792795        0.4139130648
  H         6.0494851497        2.5064625838        1.1847968371
  H         7.1455659699        1.8821888790        0.1908340407
  H         5.8161014589        0.9462735389        0.6237041237
  C         5.4544056728        2.4618505750       -0.7136178235
  H         6.1273264420        2.4974740577       -1.5715881476
  H         4.5977395940        1.8361762055       -0.9602332114
  C         4.9704644857        3.8756547451       -0.3818612291
  O         3.7785288670        4.0860753307       -0.5882618617
  N         5.7089005173        4.8752672011        0.1413198649
  H         5.3088907711        5.7973398565        0.0889065231
  C         7.0360276041        4.8919115075        0.7245099629
  H         7.4266854697        5.9091519051        0.6853230625
  H         6.9493124790        4.6050430795        1.7742837851
  C         7.9645529629        3.9624605692       -0.0194564936
  O         8.4770022787        3.0621640985        0.6733284919
  O         7.8793340008        3.9169594011       -1.2586055877
      17
 i =       1, E =       -0.3383119101
  N         6.1559199298        1.8645273767        0.4174018502
  H         6.0507844561        2.5123480747        1.1872717237
  H         7.1458073449        1.8827509757        0.1918336600
  H         5.8127201341        0.9471056766        0.6226897708
  C         5.4520430904        2.4593488621       -0.7135010568
  H         6.1285573149        2.4953792950       -1.5724241225
  H         4.6005729944        1.8345942445       -0.9552541964
  C         4.9706072032        3.8753786758       -0.3803805005
  O         3.7788325475        4.0850236948       -0.5902577281
  N         5.7079260585        4.8772721464        0.1404793739
  H         5.3099638822        5.7953484140        0.0848219124
  C         7.0358878070        4.8934887712        0.7201961521
  H         7.4292961376        5.9084074686        0.6813686364
  H         6.9481221683        4.6099687336        1.7680860046
  C         7.9645947553        3.9607330531       -0.0192495698
  O         8.4754043374        3.0645974766        0.6745190114
  O         7.8812013075        3.9166636245       -1.2577546230
      17
 i =       2, E =       -0.3383208498
  N         6.1550824017        1.8654418989        0.4200416678
  H         6.0495345782        2.5133883443        1.1888596391
  H         7.1464016281        1.8828893052        0.1951908005
  H         5.8120464662        0.9485572055        0.6262978990
  C         5.4526828168        2.4584941987       -0.7126196739
  H         6.1293604718        2.4934930027       -1.5706613913
  H         4.6010999935        1.8335329730       -0.9535184637
  C         4.9709559502        3.8750893268       -0.3824854365
  O         3.7794849582        4.0845444654       -0.5941287212
  N         5.7077835443        4.8777051438        0.1376013770
  H         5.3096632518        5.7954292053        0.0797109882
  C         7.0350491563        4.8947730539        0.7188620250
  H         7.4289424059        5.9092949518        0.6779763979
  H         6.9463231067        4.6135551123        1.7667050260
  C         7.9644770410        3.9607143278       -0.0178807471
  O         8.4744053649        3.0655847886        0.6780380375
  O         7.8825364268        3.9146174407       -1.2564382671
      17
 i =       3, E =       -0.3383417837
  N         6.1520540379        1.8689955535        0.4298193013
  H         6.0437956721        2.5199168494        1.1945609980
  H         7.1458597343        1.8840498405        0.2089044495
  H         5.8082911059        0.9536195932        0.6401732348
  C         5.4553152602        2.4554181292       -0.7091180823
  H         6.1342797022        2.4852547996       -1.5644483218
  H         4.6037218168        1.8292349538       -0.9490194518
  C         4.9723149744        3.8739373485       -0.3905223478
  O         3.7821544654        4.0827430100       -0.6088306396
  N         5.7073378508        4.8790270234        0.1266299759
  H         5.3092907648        5.7964525043        0.0609959822
  C         7.0319379094        4.8995823898        0.7136366956
  H         7.4268762631        5.9132388976        0.6671970338
  H         6.9387462355        4.6257789093        1.7624895376
  C         7.9638795777        3.9607490167       -0.0126805757
  O         8.4706960916        3.0690456570        0.6916671696
  O         7.8871940878        3.9071299267       -1.2515454112
      17
 i =       4, E =       -0.3383580519
  N         6.1474252626        1.8747500122        0.4452425952
  H         6.0344455572        2.5309334893        1.2035801253
  H         7.1442401175        1.8861923040        0.2309720094
  H         5.8020076037        0.9617616506        0.6622533651
  C         5.4594480042        2.4506121868       -0.7033501508
  H         6.1424245059        2.4719900025       -1.5545317369
  H         4.6080190068        1.8224096052       -0.9420599719
  C         4.9745830114        3.8719554575       -0.4032967042
  O         3.7865718748        4.0796860671       -0.6322155183
  N         5.7067123354        4.8809089256        0.1090945075
  H         5.3089865763        5.7979295802        0.0312683956
  C         7.0270407893        4.9072039529        0.7050988002
  H         7.4235336631        5.9195256276        0.6502732235
  H         6.9265858283        4.6450015527        1.7557549882
  C         7.9628604821        3.9608168041       -0.0043751242
  O         8.4646527389        3.0747258436        0.7133999825
  O         7.8943560541        3.8953669530       -1.2436595837
      17
 i =       5, E =       -0.3383555043
  N         6.1418379411        1.8822117772        0.4647742942
  H         6.0224899779        2.5453466073        1.2150463461
  H         7.1416792331        1.8892878095        0.2591915164
  H         5.7938337728        0.9724419458        0.6903272249
  C         5.4644934383        2.4445841819       -0.6957060752
  H         6.1527739950        2.4551305533       -1.5416840294
  H         4.6135189658        1.8138359152       -0.9328734199
  C         4.9776688465        3.8691659971       -0.4194647856
  O         3.7924357416        4.0754331358       -0.6619012929
  N         5.7060510720        4.8830396609        0.0866557067
  H         5.3089257260        5.7992956156       -0.0066637489
  C         7.0209133952        4.9168629262        0.6938626082
  H         7.4194313995        5.9273767430        0.6284679735
  H         6.9112037089        4.6694787307        1.7467761460
  C         7.9615319003        3.9608227741        0.0062101041
  O         8.4566691928        3.0824304566        0.7409552657
  O         7.9031025814        3.8805833433       -1.2334244891
      17
 i =       6, E =       -0.3383292766
  N         6.1357518155        1.8909845092        0.4872697641
  H         6.0087690252        2.5623076011        1.2282484409
  H         7.1383366732        1.8933362189        0.2917886096
  H         5.7843017192        0.9852385366        0.7226478524
  C         5.4699638297        2.4377002679       -0.6865162853
  H         6.1644877766        2.4358034977       -1.5265040232
  H         4.6198147597        1.8041419273       -0.9216048274
  C         4.9814815946        3.8655909449       -0.4379095651
  O         3.7994965630        4.0700092001       -0.6959474757
  N         5.7054848143        4.8852113867        0.0606474186
  H         5.3092649129        5.8001003955       -0.0505544322
  C         7.0140287522        4.9279280829        0.6804195189
  H         7.4150125675        5.9361727263        0.6027401785
  H         6.8937287636        4.6978297691        1.7357314086
  C         7.9599937124        3.9606874343        0.0183502567
  O         8.4470708448        3.0920607176        0.7724099885
  O         7.9127181887        3.8637479294       -1.2213381019
      17
 i =       7, E =       -0.3382793861
  N         6.1293530223        1.9008647220        0.5120803669
  H         5.9938426041        2.5813214260        1.2427135997
  H         7.1343602699        1.8983869755        0.3276492220
  H         5.7737644135        0.9998953201        0.7581440601
  C         5.4755915127        2.4301477716       -0.6759733027
  H         6.1770154010        2.4146945245       -1.5093314626
  H         4.6266005020        1.7937104111       -0.9083076220
  C         4.9859196026        3.8612430401       -0.4578945974
  O         3.8076078069        4.0633657007       -0.7331090471
  N         5.7051248773        4.8872873849        0.0319060530
  H         5.3101109717        5.8000627628       -0.0990111229
  C         7.0067188261        4.9399848303        0.6650590303
  H         7.4105788995        5.9455182840        0.5736243016
  H         6.8748954910        4.7292083751        1.7226735681
  C         7.9582555496        3.9604583732        0.0315094929
  O         8.4360943709        3.1035976707        0.8064832732
  O         7.9227881960        3.8454242534       -1.2076848514
      17
 i =       8, E =       -0.3382053601
  N         6.1226203395        1.9118419841        0.5389507663
  H         5.9780088226        2.6022125427        1.2581876892
  H         7.1298480342        1.9045556653        0.3662677258
  H         5.7624125956        1.0163105009        0.7963441813
  C         5.4813171037        2.4219781539       -0.6641081198
  H         6.1900775728        2.3921009861       -1.4902584104
  H         4.6336740986        1.7826923940       -0.8929468904
  C         4.9908957653        3.8560933501       -0.4790365652
  O         3.8167230233        4.0553488209       -0.7727790424
  N         5.7050541092        4.8891468249        0.0008161524
  H         5.3115217591        5.7990151658       -0.1514200014
  C         6.9991706150        4.9528263469        0.6478692445
  H         7.4062890532        5.9551999017        0.5412688842
  H         6.8550647879        4.7632498925        1.7075286302
  C         7.9562337871        3.9603221022        0.0453858160
  O         8.4238792737        3.1171192114        0.8424975058
  O         7.9331549311        3.8258304304       -1.1925733211
      17
 i =       9, E =       -0.3381076236
  N         6.1154196380        1.9240619506        0.5679299452
  H         5.9613327952        2.6250984905        1.2745903347
  H         7.1247976015        1.9120548267        0.4076617056
  H         5.7502973783        1.0345389472        0.8372647557
  C         5.4872130656        2.4131479844       -0.6508109593
  H         6.2036482134        2.3679973644       -1.4691435680
  H         4.6409586090        1.7710415284       -0.8754041192
  C         4.9963855033        3.8500230521       -0.5012446390
  O         3.8268839339        4.0456559173       -0.8148896209
  N         5.7053113090        4.8906661632       -0.0326211260
  H         5.3135346135        5.7968133580       -0.2078251637
  C         6.9914167524        4.9664411506        0.6287616046
  H         7.4021677384        5.9651360229        0.5054986893
  H         6.8342688274        4.7999860771        1.6900836407
  C         7.9538065033        3.9605455479        0.0599285885
  O         8.4104356907        3.1328786002        0.8802536195
  O         7.9438744689        3.8049190313       -1.1759485064
      17
 i =      10, E =       -0.3379908717
  N         6.1075177799        1.9378418864        0.5994037940
  H         5.9436035361        2.6504579246        1.2919927346
  H         7.1190389540        1.9212621380        0.4524186933
  H         5.7372872275        1.0548736218        0.8814351129
  C         5.4934302454        2.4035172838       -0.6358302355
  H         6.2179841669        2.3420139484       -1.4455415075
  H         4.6485408258        1.7585151467       -0.8554452980
  C         5.0024663732        3.8427731303       -0.5247372545
  O         3.8382655366        4.0337564913       -0.8599427094
  N         5.7058955681        4.8917154154       -0.0688355443
  H         5.3162216542        5.7932480588       -0.2689933373
  C         6.9833091604        4.9810285859        0.6074363489
  H         7.3981105677        5.9753674953        0.4657703952
  H         6.8121868998        4.8398705242        1.6699080902
  C         7.9508520295        3.9614367887        0.0753171406
  O         8.3955768524        3.1514156427        0.9200341896
  O         7.9552274292        3.7823835815       -1.1574951225
      17
 i =      11, E =       -0.3378653449
  N         6.0984823952        1.9537799635        0.6342239630
  H         5.9242046386        2.6792955193        1.3106098769
  H         7.1121434250        1.9328433994        0.5018841897
  H         5.7229364121        1.0780231167        0.9300552968
  C         5.5001995805        2.3928077874       -0.6187154190
  H         6.2336940866        2.3133404076       -1.4185245206
  H         4.6567119231        1.7446442826       -0.8326443721
  C         5.0093568970        3.8338914668       -0.5501482054
  O         3.8512986706        4.0187592362       -0.9091847385
  N         5.7068079888        4.8921274615       -0.1088618067
  H         5.3197835340        5.7879384692       -0.3366850842
  C         6.9744989917        4.9970196412        0.5832573403
  H         7.3938941928        5.9860682400        0.4210070249
  H         6.7880449437        4.8839185832        1.6461865155
  C         7.9472375106        3.9633608247        0.0919789616
  O         8.3787998934        3.1737069852        0.9627537666
  O         7.9677750966        3.7575918377       -1.1364558845
      17
 i =      12, E =       -0.3377463034
  N         6.0874966947        1.9729523016        0.6738528028
  H         5.9019217313        2.7133717540        1.3307645892
  H         7.1032871387        1.9479464380        0.5584132838
  H         5.7062722021        1.1053757883        0.9851959637
  C         5.5078662808        2.3805597637       -0.5987072507
  H         6.2518168892        2.2806152284       -1.3864111920
  H         4.6659959582        1.7286967876       -0.8062740063
  C         5.0174982655        3.8226458408       -0.5786683204
  O         3.8668464772        3.9992099963       -0.9648476585
  N         5.7081361658        4.8916079043       -0.1545811705
  H         5.3247019482        5.7801582746       -0.4140308806
  C         6.9644423729        5.0150767333        0.5550592466
  H         7.3892081127        5.9975212602        0.3693639046
  H         6.7604819164        4.9338845185        1.6174520597
  C         7.9427633041        3.9668031043        0.1107078932
  O         8.3591030663        3.2013836701        1.0101504557
  O         7.9824285727        3.7294941303       -1.1114124110
      17
 i =      13, E =       -0.3376523895
  N         6.0731208913        1.9972055541        0.7204960997
  H         5.8746865785        2.7555193426        1.3527823780
  H         7.0910091842        1.9685153374        0.6256500006
  H         5.6854757586        1.1393984796        1.0500030477
  C         5.5169062700        2.3661233447       -0.5745666941
  H         6.2738808781        2.2418311720       -1.3463654036
  H         4.6771542266        1.7096523985       -0.7751264069
  C         5.0277020789        3.8078513845       -0.6121893147
  O         3.8864518643        3.9727762018       -1.0303988832
  N         5.7102099603        4.8895600365       -0.2090191640
  H         5.3319996849        5.7685174984       -0.5059822122
  C         6.9524287347        5.0360793325        0.5208870065
  H         7.3837407396        6.0100084201        0.3079066021
  H         6.7274242128        4.9924425716        1.5811477292
  C         7.9370730708        3.9724671338        0.1327799294
  O         8.3347173822        3.2370569002        1.0649567751
  O         8.0004987274        3.6965420365       -1.0799575147
      17
 i =      14, E =       -0.3376028733
  N         6.0529539244        2.0296101569        0.7771964162
  H         5.8392257273        2.8100876169        1.3767195326
  H         7.0727949666        1.9978324852        0.7088118547
  H         5.6573868563        1.1842796307        1.1288531796
  C         5.5279037017        2.3486930798       -0.5443179210
  H         6.3019247577        2.1943010739       -1.2937656734
  H         4.6911679032        1.6862115293       -0.7372155566
  C         5.0413801512        3.7875664621       -0.6534410391
  O         3.9127587736        3.9357018369       -1.1107708738
  N         5.7138801502        4.8847503060       -0.2767209807
  H         5.3437027979        5.7503571616       -0.6198519626
  C         6.9376388983        5.0610687892        0.4776112113
  H         7.3773664999        6.0235522605        0.2321583657
  H         6.6859815838        5.0633422459        1.5328935421
  C         7.9295202592        3.9814260939        0.1600788474
  O         8.3026779575        3.2848598441        1.1309902334
  O         8.0237018039        3.6566611662       -1.0381650754
      17
 i =      15, E =       -0.3376138463
  N         6.0230515256        2.0752475082        0.8478104392
  H         5.7905427515        2.8836100376        1.4017156547
  H         7.0443353574        2.0415217587        0.8149478627
  H         5.6166688032        1.2470455269        1.2273597041
  C         5.5414734424        2.3274136779       -0.5048200064
  H         6.3384309984        2.1347687144       -1.2211168109
  H         4.7091844856        1.6568665822       -0.6892543232
  C         5.0609650776        3.7585415621       -0.7060922644
  O         3.9502802426        3.8817922870       -1.2125278832
  N         5.7210208865        4.8746408561       -0.3642627651
  H         5.3637129116        5.7205695103       -0.7659911889
  C         6.9192944315        5.0910577670        0.4202915449
  H         7.3705360529        6.0373890366        0.1354094964
  H         6.6323864080        5.1514934739        1.4651942429
  C         7.9189122972        3.9954490025        0.1952225436
  O         8.2580925987        3.3514050928        1.2130827401
  O         8.0540785286        3.6073516530       -0.9796578255
      17
 i =      16, E =       -0.3376944272
  N         5.9768942050        2.1425986504        0.9365456010
  H         5.7211718093        2.9857624633        1.4244705217
  H         6.9981313426        2.1094301254        0.9528742388
  H         5.5543259994        1.3395377337        1.3517942411
  C         5.5580306751        2.3017085864       -0.4510571069
  H         6.3859401182        2.0599780327       -1.1161457781
  H         4.7323176096        1.6201813367       -0.6257443389
  C         5.0906725612        3.7151814414       -0.7746521927
  O         4.0068309842        3.8005309688       -1.3436357760
  N         5.7355447855        4.8540415511       -0.4808016633
  H         5.3995215887        5.6692758275       -0.9583978612
  C         6.8970481747        5.1264806518        0.3411288753
  H         7.3651308896        6.0488241425        0.0077460526
  H         6.5621743454        5.2626925297        1.3651101824
  C         7.9030386695        4.0176234416        0.2416725841
  O         8.1928393309        3.4474997469        1.3164285830
  O         8.0936326513        3.5461770175       -0.8939950772
      17
 i =      17, E =       -0.3378431973
  N         5.9036611713        2.2458621099        1.0460809369
  H         5.6203846274        3.1303865682        1.4357209853
  H         6.9209467826        2.2190363381        1.1316619850
  H         5.4552018625        1.4817421750        1.5065688677
  C         5.5771111862        2.2722025528       -0.3750786042
  H         6.4456557545        1.9686147501       -0.9587114821
  H         4.7609759599        1.5757151876       -0.5374881558
  C         5.1379074748        3.6477289707       -0.8635000720
  O         4.0960284864        3.6737525377       -1.5116552916
  N         5.7654026901        4.8123750090       -0.6380964563
  H         5.4655541638        5.5773359448       -1.2141430778
  C         6.8720953076        5.1657000300        0.2279825034
  H         7.3663601655        6.0507087729       -0.1649171183
  H         6.4713226852        5.4020345452        1.2102014245
  C         7.8777712688        4.0535475144        0.3032856428
  O         8.0934409448        3.5909442507        1.4441884551
  O         8.1431080928        3.4724268667       -0.7640265187
      17
 i =      18, E =       -0.3380445740
  N         5.7863360329        2.4074363228        1.1713685723
  H         5.4749271963        3.3343900394        1.4128058988
  H         6.7902719118        2.4001164861        1.3537257178
  H         5.2951056146        1.7055203408        1.6856282652
  C         5.5955779729        2.2432221798       -0.2653045432
  H         6.5131323931        1.8672002853       -0.7178312092
  H         4.7928048401        1.5268408080       -0.4101686200
  C         5.2149800157        3.5398090063       -0.9730074911
  O         4.2406696309        3.4713813064       -1.7164018726
  N         5.8261846072        4.7290601484       -0.8470383451
  H         5.5886415079        5.4090282588       -1.5467446071
  C         6.8499434881        5.2011711780        0.0635909568
  H         7.3866393796        6.0262718875       -0.3992882379
  H         6.3606215106        5.5678628743        0.9635080603
  C         7.8357016171        4.1130985705        0.3827869740
  O         7.9387280567        3.8094990081        1.5895265411
  O         8.1983507602        3.3919578972       -0.5636104341
      17
 i =      19, E =       -0.3382604705
  N         5.6045293917        2.6543894793        1.2845453164
  H         5.2775811097        3.6067775312        1.3094878568
  H         6.5750289291        2.6936879747        1.5940117207
  H         5.0442099507        2.0500866632        1.8510496577
  C         5.6036962846        2.2278090143       -0.1102263372
  H         6.5680549715        1.7834874411       -0.3582706499
  H         4.8176810674        1.4873629705       -0.2272808554
  C         5.3386727816        3.3699984132       -1.0878734984
  O         4.4706587577        3.1539372127       -1.9292537125
  N         5.9434321900        4.5698283716       -1.1029282681
  H         5.8108044370        5.1085962535       -1.9408209389
  C         6.8460684330        5.2122941184       -0.1678477938
  H         7.4508383585        5.9424317284       -0.7023151947
  H         6.2480751148        5.7354149298        0.5769113646
  C         7.7663453245        4.2099067274        0.4723528966
  O         7.7038526423        4.1354262639        1.7177512754
  O         8.2416169998        3.3287327915       -0.2626627661
      17
 i =      20, E =       -0.3383675338
  N         5.3617503007        2.9822106433        1.3207851618
  H         5.0563642363        3.9097609593        1.0736767849
  H         6.2680573378        3.1088102635        1.7687430391
  H         4.7046536025        2.5116531375        1.9104952671
  C         5.5847716191        2.2495004150        0.0798294793
  H         6.5669775923        1.7764068082        0.1062434517
  H         4.8140493531        1.4869825660        0.0040466042
  C         5.5105553237        3.1348546885       -1.1626920962
  O         4.7908193401        2.7183383734       -2.0647055978
  N         6.1359896975        4.3120454544       -1.3488541685
  H         6.1561273997        4.6441078252       -2.2975073607
  C         6.8852362392        5.1645028422       -0.4485466306
  H         7.5858238156        5.7635802598       -1.0278103814
  H         6.1837185644        5.8354918320        0.0482847044
  C         7.6629697465        4.3518378713        0.5510211928
  O         7.3941588702        4.5592893469        1.7465038014
  O         8.2372670445        3.3290764864        0.1253380360
