 DBCSR| CPU Multiplication driver                                           XSMM (U)
 DBCSR| Multrec recursion limit                                              512 (U)
 DBCSR| Multiplication stack size                                           1000 (D)
 DBCSR| Maximum elements for images                                    UNLIMITED (U)
 DBCSR| Multiplicative factor virtual images                                   1 (U)
 DBCSR| Use multiplication densification                                       T (D)
 DBCSR| Multiplication size stacks                                             3 (U)
 DBCSR| Use memory pool for CPU allocation                                     F (U)
 DBCSR| Number of 3D layers                                               SINGLE (U)
 DBCSR| Use MPI memory allocation                                              F (U)
 DBCSR| Use RMA algorithm                                                      F (U)
 DBCSR| Use Communication thread                                               T (U)
 DBCSR| Communication thread load                                             87 (D)
 DBCSR| MPI: My process id                                                     0
 DBCSR| MPI: Number of processes                                               8
 DBCSR| OMP: Current number of threads                                         1
 DBCSR| OMP: Max number of threads                                             1
 DBCSR| Split modifier for TAS multiplication algorithm                  1.0E+00 (U)


  **** **** ******  **  PROGRAM STARTED AT               2026-04-21 22:15:46.015
 ***** ** ***  *** **   PROGRAM STARTED ON                                  n173
 **    ****   ******    PROGRAM STARTED BY                                 lab07
 ***** **    ** ** **   PROGRAM PROCESS ID                                  4697
  **** **  *******  **  PROGRAM STARTED IN /DATA/lab07/hglee/cp2k_agent/test/lev
                                           el4

 CP2K| version string:                                       CP2K version 2026.1
 CP2K| source code revision number:                                  git:5e54ba2
 CP2K| cp2kflags: omp libint fftw3 libxc elpa parallel scalapack cosma xsmm spgl
 CP2K|            ib mkl sirius libvori libbqb libvdwxc hdf5
 CP2K| is freely available from                            https://www.cp2k.org/
 CP2K| Program compiled at                                   2026-03-01 16:41:12
 CP2K| Program compiled on                                                master
 CP2K| Program compiled for                                               x86_64
 CP2K| Data directory path                           /share/cp2k-2026.1_mkl/data
 CP2K| Input file name                                       L4_Diamond_Band.inp

 GLOBAL| Force Environment number                                              1
 GLOBAL| Basis set file name                                      GTH_BASIS_SETS
 GLOBAL| Potential file name                                           POTENTIAL
 GLOBAL| MM Potential file name                                     MM_POTENTIAL
 GLOBAL| Coordinate file name                                      __STD_INPUT__
 GLOBAL| Method name                                                        CP2K
 GLOBAL| Project name                                                          C
 GLOBAL| Run type                                                   ENERGY_FORCE
 GLOBAL| FFT library                                                       FFTW3
 GLOBAL| Diagonalization library                                            ELPA
 GLOBAL| Cholesky decomposition library                                ScaLAPACK
 GLOBAL| DGEMM library                                                      BLAS
 GLOBAL| Minimum number of eigenvectors for ELPA usage                        16
 GLOBAL| Orthonormality check for eigenvectors                          DISABLED
 GLOBAL| Matrix multiplication library                                     COSMA
 GLOBAL| All-to-all communication in single precision                          F
 GLOBAL| FFTs using library dependent lengths                                  F
 GLOBAL| Grid backend                                                       AUTO
 GLOBAL| Global print level                                                  LOW
 GLOBAL| MPI I/O enabled                                                       T
 GLOBAL| Total number of message passing processes                             8
 GLOBAL| Number of distributed systems (nodes)                                 1
 GLOBAL| Number of threads for this process                                    1
 GLOBAL| This output is from process                                           0
 GLOBAL| OpenMP stack size per thread (OMP_STACKSIZE)                    default
 GLOBAL| CPU model name                     13th Gen Intel(R) Core(TM) i7-13700K
 GLOBAL| CPUID                                                              1002

 MEMORY| system memory details [Kb]
 MEMORY|                        rank 0           min           max       average
 MEMORY| MemTotal             65607484      65607484      65607484      65607484
 MEMORY| MemFree              61974076      61974076      61974076      61974076
 MEMORY| Buffers                 94272         94272         94272         94272
 MEMORY| Cached                1040772       1040772       1040772       1040772
 MEMORY| Slab                   314196        314196        314196        314196
 MEMORY| SReclaimable            56168         56168         56168         56168
 MEMORY| MemLikelyFree        63165288      63165288      63165288      63165288


 GENERATE|  Preliminary Number of Bonds generated:                             0
 GENERATE|  Achieved consistency in connectivity generation.

 *******************************************************************************
 *******************************************************************************
 **                                                                           **
 **     #####                         ##              ##                      **
 **    ##   ##            ##          ##              ##                      **
 **   ##     ##                       ##            ######                    **
 **   ##     ##  ##   ##  ##   #####  ##  ##   ####   ##    #####    #####    **
 **   ##     ##  ##   ##  ##  ##      ## ##   ##      ##   ##   ##  ##   ##   **
 **   ##  ## ##  ##   ##  ##  ##      ####     ###    ##   ######   ######    **
 **    ##  ###   ##   ##  ##  ##      ## ##      ##   ##   ##       ##        **
 **     #######   #####   ##   #####  ##  ##  ####    ##    #####   ##        **
 **           ##                                                    ##        **
 **                                                                           **
 **                                                ... make the atoms dance   **
 **                                                                           **
 **            Copyright (C) by CP2K developers group (2000-2026)             **
 **                      J. Chem. Phys. 152, 194103 (2020)                    **
 **                                                                           **
 *******************************************************************************


 TOTAL NUMBERS AND MAXIMUM NUMBERS

  Total number of            - Atomic kinds:                                   1
                             - Atoms:                                          8
                             - Shell sets:                                    16
                             - Shells:                                        40
                             - Primitive Cartesian functions:                 40
                             - Cartesian basis functions:                    112
                             - Spherical basis functions:                    104

  Maximum angular momentum of- Orbital basis functions:                        2
                             - Local part of the GTH pseudopotential:          2
                             - Non-local part of the GTH pseudopotential:      0


 SCF PARAMETERS         Density guess:                                    ATOMIC
                        --------------------------------------------------------
                        max_scf:                                              20
                        max_scf_history:                                       0
                        max_diis:                                              4
                        --------------------------------------------------------
                        eps_scf:                                        1.00E-04
                        eps_scf_history:                                0.00E+00
                        eps_diis:                                       1.00E-01
                        eps_eigval:                                     1.00E-05
                        --------------------------------------------------------
                        level_shift [a.u.]:                             0.000000
                        --------------------------------------------------------
                        Mixing method:                           DIRECT_P_MIXING
                        --------------------------------------------------------
                        No outer SCF

 Extrapolation method: initial_guess

 Number of electrons:                                                         32
 Number of occupied orbitals:                                                 16
 Number of molecular orbitals:                                                16

 Number of orbital functions:                                                104
 Number of independent orbital functions:                                    104


 SCF WAVEFUNCTION OPTIMIZATION

  Step     Update method      Time    Convergence         Total energy    Change
  ------------------------------------------------------------------------------
     1 P_Mix/Diag. 0.70E+00    0.1     1.26544355       -46.8656609559 -4.69E+01
     2 P_Mix/Diag. 0.70E+00    0.0     0.37310985       -45.6359708245  1.23E+00
     3 P_Mix/Diag. 0.70E+00    0.0     0.13123985       -45.2533503274  3.83E-01
     4 P_Mix/Diag. 0.70E+00    0.0     0.03981753       -45.1383376272  1.15E-01
     5 P_Mix/Diag. 0.70E+00    0.0     0.01148591       -45.1038283097  3.45E-02
     6 P_Mix/Diag. 0.70E+00    0.0     0.00342268       -45.0934753168  1.04E-02
     7 P_Mix/Diag. 0.70E+00    0.0     0.00104325       -45.0903694116  3.11E-03
     8 P_Mix/Diag. 0.70E+00    0.0     0.00031745       -45.0894376400  9.32E-04
     9 P_Mix/Diag. 0.70E+00    0.0     0.00009650       -45.0891581085  2.80E-04

  *** SCF run converged in     9 steps ***


  Electronic density on regular grids:        -31.9999954541        0.0000045459
  Core density on regular grids:               31.9999999968       -0.0000000032
  Total charge density on r-space grids:        0.0000045427
  Total charge density g-space grids:           0.0000045427

  Overlap energy of the core charge distribution:               0.00000028874778
  Self energy of the core charge distribution:               -103.51198797884877
  Core Hamiltonian energy:                                     34.74294880514657
  Hartree energy:                                              37.95846203279197
  Exchange-correlation energy:                                -14.27858125634559

  Total energy:                                               -45.08915810850804

 KPOINTS| Band Structure Calculation
 KPOINTS| Number of k-point sets                                               2
 KPOINTS| Number of added MOs/bands                                            2
 KPOINTS| Number of k-points in set    1                                      11
 KPOINTS| In units of b-vector [2pi/Bohr]
 KPOINTS| Special point     1       Gamma     0.000000     0.000000     0.000000
 KPOINTS| Special point     2           X     1.000000     0.000000     0.000000
 KPOINTS| Time for k-point line                                            0.092
 KPOINTS| Number of k-points in set    2                                      11
 KPOINTS| In units of b-vector [2pi/Bohr]
 KPOINTS| Special point     1 not specifi     0.000000     0.000000     0.000000
 KPOINTS| Special point     2 not specifi     0.500000     0.500000     0.500000
 KPOINTS| Special point     3 not specifi     1.000000     0.000000     0.000000
 KPOINTS| Time for k-point line                                            0.054

 ENERGY| Total FORCE_EVAL ( QS ) energy [hartree]            -45.089038309324238

 -------------------------------------------------------------------------------
 -                                                                             -
 -                                DBCSR STATISTICS                             -
 -                                                                             -
 -------------------------------------------------------------------------------
 COUNTER                                    TOTAL       BLAS       SMM       ACC
 flops inhomo. stacks                           0       0.0%      0.0%      0.0%
 flops total                         0.000000E+00       0.0%      0.0%      0.0%
 flops max/rank                      0.000000E+00       0.0%      0.0%      0.0%
 matmuls inhomo. stacks                         0       0.0%      0.0%      0.0%
 matmuls total                                  0       0.0%      0.0%      0.0%
 number of processed stacks                     0       0.0%      0.0%      0.0%
 average stack size                                     0.0       0.0       0.0
 marketing flops                     0.000000E+00
 -------------------------------------------------------------------------------
 -                                                                             -
 -                      DBCSR MESSAGE PASSING PERFORMANCE                      -
 -                                                                             -
 -------------------------------------------------------------------------------
 ROUTINE             CALLS      AVE VOLUME [Bytes]
 MP_Bcast                1                     12.
 MP_Allreduce           21                     20.
 MP_Gather               4                      4.
 MP_Alltoall          1924                   6658.
 MP_Recv                42                   5425.
 -------------------------------------------------------------------------------

 -------------------------------------------------------------------------------
 -                                                                             -
 -                                GRID STATISTICS                              -
 -                                                                             -
 -------------------------------------------------------------------------------
 LP    KERNEL             BACKEND                              COUNT     PERCENT
 2     collocate ortho    CPU                                 126400      34.66%
 2     integrate ortho    CPU                                 113760      31.20%
 3     integrate ortho    CPU                                  57856      15.87%
 3     collocate ortho    CPU                                  50240      13.78%
 4     integrate ortho    CPU                                  10136       2.78%
 4     collocate ortho    CPU                                   5680       1.56%
 5     integrate ortho    CPU                                    568       0.16%
 0     collocate general  CPU                                      8       0.00%
 1     integrate general  CPU                                      8       0.00%
 -------------------------------------------------------------------------------

 -------------------------------------------------------------------------------
 -                                                                             -
 -                          OFFLOAD MEMPOOL STATISTICS                         -
 -                                                                             -
 -------------------------------------------------------------------------------
 Memory consumption                Number of allocations  Used [MiB]  Size [MiB]
 Device                                                6           1           2
 Host                                                  6           1           2
 -------------------------------------------------------------------------------

 MEMORY| Estimated peak process memory [MiB]                                 254

 -------------------------------------------------------------------------------
 -                                                                             -
 -                         MESSAGE PASSING PERFORMANCE                         -
 -                                                                             -
 -------------------------------------------------------------------------------

 ROUTINE             CALLS      AVE VOLUME [Bytes]
 MP_Group                7
 MP_Bcast              759                   8137.
 MP_Allreduce         6624                     12.
 MP_Sync                22
 MP_Alltoall           122                  43343.
 MP_SendRecv           287                   4782.
 MP_ISendRecv          287                   4782.
 MP_Wait               867
 MP_comm_split          24
 MP_ISend              819                   2044.
 MP_IRecv              819                   2041.
 -------------------------------------------------------------------------------


 -------------------------------------------------------------------------------
 -                                                                             -
 -                           R E F E R E N C E S                               -
 -                                                                             -
 -------------------------------------------------------------------------------
 
 CP2K version 2026.1, the CP2K developers group (2026).
 CP2K is freely available from https://www.cp2k.org/ .
 
 T. D. Kuehne, M. Iannuzzi, M. Del Ben, V. V. Rybkin, P. Seewald, F. Stein, T. 
 Laino, R. Z. Khaliullin, O. Schuett, F. Schiffmann, D. Golze, J. Wilhelm, S. 
 Chulkov, M. H. Bani-Hashemian, V. Weber, U. Borstnik, M. Taillefumier, A. S. 
 Jakobovits, A. Lazzaro, H. Pabst, T. Mueller, R. Schade, M. Guidon, S. 
 Andermatt, N. Holmberg, G. K. Schenter, A. Hehn, A. Bussy, F. Belleflamme, G. 
 Tabacchi, A. Gloess, M. Lass, I. Bethune, C. J. Mundy, C. Plessl, M. Watkins, 
 J. VandeVondele, M. Krack, J. Hutter.
 J. Chem. Phys. 152, 194103 (2020).
 CP2K: An electronic structure and molecular dynamics software package - 
 Quickstep: Efficient and accurate electronic structure calculations.
 https://doi.org/10.1063/5.0007045

 A. Togo, I. Tanaka.
 arXiv, 1808.01590 (2018).
 Spglib : a software library for crystal symmetry search.

 O. Schuett, P. Messmer, J. Hutter, J. VandeVondele.
 Electronic Structure Calculations on Graphics Processing Units, 173-190 (2016).
 GPU-Accelerated Sparse Matrix-Matrix Multiplication for Linear Scaling Density 
 Functional Theory.
 https://doi.org/10.1002/9781118670712.ch8

 A. Heinecke, G. Henry, M. Hutchinson, H. Pabst.
 Proceedings of Intl. Supercomputing Conference, 981-991 (2016).
 LIBXSMM: Accelerating Small Matrix Multiplications by Runtime Code Generation.
 https://doi.org/10.1109/SC.2016.83

 J. Hutter, M. Iannuzzi, F. Schiffmann, J. VandeVondele.
 WIREs Comput Mol Sci. 4, 15-25 (2014).
 CP2K: atomistic simulations of condensed matter systems.
 https://doi.org/10.1002/wcms.1159

 U. Borstnik, J. VandeVondele, V. Weber, J. Hutter.
 Parallel Comput. 40, 47-58 (2014).
 Sparse matrix multiplication: The distributed block-compressed sparse row 
 library.
 https://doi.org/10.1016/j.parco.2014.03.012

 A. Marek, V. Blum, R. Johanni, V. Havu, B. Lang, T. Auckenthaler, A. Heinecke, 
 H. Bungartz, H. Lederer.
 J. Phys. Condens. Matter 26, 213201 (2014).
 The ELPA library: scalable parallel eigenvalue solutions for electronic 
 structure theory and computational science.
 https://doi.org/10.1088/0953-8984/26/21/213201

 J. VandeVondele, M. Krack, F. Mohamed, M. Parrinello, T. Chassaing, J. Hutter.
 Comput. Phys. Commun. 167, 103-128 (2005).
 QUICKSTEP: Fast and accurate density functional calculations using a mixed 
 Gaussian and plane waves approach.
 https://doi.org/10.1016/j.cpc.2004.12.014

 M. Krack.
 Theor. Chem. Acc. 114, 145-152 (2005).
 Pseudopotentials for H to Kr optimized for gradient-corrected 
 exchange-correlation functionals.
 https://doi.org/10.1007/s00214-005-0655-y

 M. Frigo, S. G. Johnson.
 Proc. IEEE 93, 216-231 (2005).
 The design and implementation of FFTW3.
 https://doi.org/10.1109/JPROC.2004.840301

 C. Hartwigsen, S. Goedecker, J. Hutter.
 Phys. Rev. B 58, 3641-3662 (1998).
 Relativistic separable dual-space Gaussian pseudopotentials from H to Rn.
 https://doi.org/10.1103/PhysRevB.58.3641

 G. Lippert, J. Hutter, M. Parrinello.
 Mol. Phys. 92, 477-487 (1997).
 A hybrid Gaussian and plane wave density functional scheme.
 https://doi.org/10.1080/002689797170220

 S. Goedecker, M. Teter, J. Hutter.
 Phys. Rev. B 54, 1703-1710 (1996).
 Separable dual-space Gaussian pseudopotentials.
 https://doi.org/10.1103/PhysRevB.54.1703


 -------------------------------------------------------------------------------
 -                                                                             -
 -                                T I M I N G                                  -
 -                                                                             -
 -------------------------------------------------------------------------------
 SUBROUTINE                       CALLS  ASD         SELF TIME        TOTAL TIME
                                MAXIMUM       AVERAGE  MAXIMUM  AVERAGE  MAXIMUM
 CP2K                                 1  1.0    0.049    0.050    1.524    1.524
 qs_forces                            1  2.0    0.002    0.002    1.292    1.292
 qs_energies                          1  3.0    0.007    0.010    1.221    1.221
 dbcsr_desymmetrize_deep            214  6.0    0.003    0.003    0.346    0.429
 mp_alltoall_i22                    336  7.4    0.339    0.422    0.339    0.422
 scf_post_calculation_gpw             1  4.0    0.001    0.001    0.382    0.405
 write_available_results              1  5.0    0.000    0.000    0.380    0.405
 write_mo_free_results                1  6.0    0.000    0.000    0.380    0.405
 write_matrix_kp_csr                  2  8.0    0.049    0.394    0.380    0.405
 scf_env_do_scf                       1  4.0    0.000    0.000    0.401    0.401
 scf_env_do_scf_inner_loop            9  5.0    0.001    0.001    0.400    0.400
 write_ks_matrix_csr                  1  7.0    0.000    0.000    0.055    0.375
 write_s_matrix_csr                   1  7.0    0.000    0.000    0.325    0.367
 do_general_diag_kp                  11  6.5    0.002    0.002    0.248    0.282
 qs_rho_update_rho_low               10  6.0    0.000    0.000    0.187    0.188
 calculate_rho_elec                  10  7.0    0.002    0.002    0.187    0.188
 rebuild_ks_matrix                   10  6.7    0.000    0.000    0.166    0.182
 qs_ks_build_kohn_sham_matrix        10  7.7    0.002    0.003    0.166    0.181
 qs_ks_update_qs_env                  9  6.0    0.000    0.000    0.164    0.177
 sum_up_and_integrate                10  8.7    0.001    0.002    0.153    0.168
 grid_collocate_task_list            10  8.0    0.148    0.167    0.148    0.167
 integrate_v_rspace                  10  9.7    0.001    0.001    0.152    0.167
 grid_integrate_task_list            10 10.7    0.144    0.159    0.144    0.159
 qs_scf_new_mos_kp                    9  6.0    0.000    0.001    0.103    0.137
 init_scf_run                         1  4.0    0.001    0.001    0.130    0.131
 scf_env_initial_rho_setup            1  5.0    0.000    0.001    0.129    0.130
 cp_cfm_geeig_canon                  22  5.0    0.000    0.000    0.121    0.121
 cp_cfm_heevd                        44  6.0    0.000    0.000    0.115    0.116
 cp_cfm_heevd_base                   44  7.0    0.115    0.116    0.115    0.116
 qs_energies_init_hamiltonians        1  4.0    0.003    0.005    0.110    0.110
 density_rs2pw                       10  8.0    0.000    0.000    0.037    0.084
 transfer_rs2pw                      41  9.0    0.000    0.000    0.032    0.078
 transfer_rs2pw_60                   11  9.8    0.002    0.002    0.031    0.078
 mp_sendrecv_dv                     287 11.0    0.029    0.076    0.029    0.076
 qs_init_subsys                       1  2.0    0.025    0.025    0.066    0.066
 build_core_hamiltonian_matrix        1  5.0    0.001    0.004    0.061    0.063
 cp_fm_geeig_canon                    9  8.0    0.001    0.001    0.062    0.062
 calculate_first_density_matrix       1  6.0    0.000    0.001    0.061    0.061
 calculate_atomic_block_dm            1  7.0    0.008    0.008    0.060    0.060
 cp_fm_diag_elpa                     18  9.0    0.000    0.000    0.055    0.055
 cp_dbcsr_alloc_block_from_nbl     2015  5.7    0.038    0.044    0.048    0.055
 get_fft_scratch                    102 12.9    0.053    0.053    0.053    0.053
 fft3d_s                              1  2.0    0.009    0.009    0.052    0.052
 cp_fm_redistribute_end              18 10.0    0.025    0.048    0.025    0.048
 cp_fm_diag_elpa_base                18 10.0    0.019    0.038    0.023    0.046
 build_core_hamiltonian_matrix_       1  3.0    0.000    0.000    0.040    0.045
 qs_env_update_s_mstruct              1  5.0    0.000    0.001    0.041    0.042
 create_qs_kind_set                   1  2.0    0.001    0.001    0.031    0.032
 read_qs_kind                         1  3.0    0.013    0.014    0.031    0.031
 -------------------------------------------------------------------------------

 The number of warnings for this run is : 0
 
 -------------------------------------------------------------------------------
  **** **** ******  **  PROGRAM ENDED AT                 2026-04-21 22:15:59.280
 ***** ** ***  *** **   PROGRAM RAN ON                                      n173
 **    ****   ******    PROGRAM RAN BY                                     lab07
 ***** **    ** ** **   PROGRAM PROCESS ID                                  4697
  **** **  *******  **  PROGRAM STOPPED IN /DATA/lab07/hglee/cp2k_agent/test/lev
                                           el4
