       6
 i =        1, E =       -33.5038111719
  O         0.0175079680        0.0183417545       -0.0222378620
  H        -0.0298908213       -0.8454548155        0.4539310737
  H         0.0439544497        0.8259706209        0.5377433451
  O         4.2500000000        0.0132738988       -0.0106655944
  H         3.8483042737       -0.9016681689        0.4332131081
  H         3.8707534219        0.8883864918        0.5490059268
       6
 i =        2, E =       -33.9293480621
  O         0.0396246259        0.0310239027        0.0229794274
  H        -0.0608500945       -0.9320559648        0.3962179057
  H         0.0822267037        0.8989041472        0.5449306989
  O         4.5000000000        0.0155580286        0.0426239675
  H         3.7149398757       -1.0301411156        0.3658638123
  H         3.7238747771        1.0145665339        0.5595940685
