 DBCSR| CPU Multiplication driver                                           XSMM (U)
 DBCSR| Multrec recursion limit                                              512 (U)
 DBCSR| Multiplication stack size                                           1000 (D)
 DBCSR| Maximum elements for images                                    UNLIMITED (U)
 DBCSR| Multiplicative factor virtual images                                   1 (U)
 DBCSR| Use multiplication densification                                       T (D)
 DBCSR| Multiplication size stacks                                             3 (U)
 DBCSR| Use memory pool for CPU allocation                                     F (U)
 DBCSR| Number of 3D layers                                               SINGLE (U)
 DBCSR| Use MPI memory allocation                                              F (U)
 DBCSR| Use RMA algorithm                                                      F (U)
 DBCSR| Use Communication thread                                               T (U)
 DBCSR| Communication thread load                                             87 (D)
 DBCSR| MPI: My process id                                                     0
 DBCSR| MPI: Number of processes                                               8
 DBCSR| OMP: Current number of threads                                         1
 DBCSR| OMP: Max number of threads                                             1
 DBCSR| Split modifier for TAS multiplication algorithm                  1.0E+00 (U)


  **** **** ******  **  PROGRAM STARTED AT               2026-04-28 20:33:14.416
 ***** ** ***  *** **   PROGRAM STARTED ON                                  n176
 **    ****   ******    PROGRAM STARTED BY                                 lab07
 ***** **    ** ** **   PROGRAM PROCESS ID                                  8225
  **** **  *******  **  PROGRAM STARTED IN /DATA/lab07/hglee/cp2k_agent/test/lev
                                           el2

 CP2K| version string:                                       CP2K version 2026.1
 CP2K| source code revision number:                                  git:5e54ba2
 CP2K| cp2kflags: omp libint fftw3 libxc elpa parallel scalapack cosma xsmm spgl
 CP2K|            ib mkl sirius libvori libbqb libvdwxc hdf5
 CP2K| is freely available from                            https://www.cp2k.org/
 CP2K| Program compiled at                                   2026-03-01 16:41:12
 CP2K| Program compiled on                                                master
 CP2K| Program compiled for                                               x86_64
 CP2K| Data directory path                           /share/cp2k-2026.1_mkl/data
 CP2K| Input file name                                           L2_Official.inp

 GLOBAL| Force Environment number                                              1
 GLOBAL| Basis set file name                                           BASIS_SET
 GLOBAL| Potential file name                                           POTENTIAL
 GLOBAL| MM Potential file name                                     MM_POTENTIAL
 GLOBAL| Coordinate file name                                      __STD_INPUT__
 GLOBAL| Method name                                                        CP2K
 GLOBAL| Project name                                                      H2O-1
 GLOBAL| Run type                                                   ENERGY_FORCE
 GLOBAL| FFT library                                                       FFTW3
 GLOBAL| Diagonalization library                                            ELPA
 GLOBAL| Cholesky decomposition library                                ScaLAPACK
 GLOBAL| DGEMM library                                                      BLAS
 GLOBAL| Minimum number of eigenvectors for ELPA usage                        16
 GLOBAL| Orthonormality check for eigenvectors                          DISABLED
 GLOBAL| Matrix multiplication library                                     COSMA
 GLOBAL| All-to-all communication in single precision                          F
 GLOBAL| FFTs using library dependent lengths                                  F
 GLOBAL| Grid backend                                                       AUTO
 GLOBAL| Global print level                                               MEDIUM
 GLOBAL| MPI I/O enabled                                                       T
 GLOBAL| Total number of message passing processes                             8
 GLOBAL| Number of distributed systems (nodes)                                 1
 GLOBAL| Number of threads for this process                                    1
 GLOBAL| This output is from process                                           0
 GLOBAL| OpenMP stack size per thread (OMP_STACKSIZE)                    default
 GLOBAL| CPU model name                     13th Gen Intel(R) Core(TM) i7-13700K
 GLOBAL| CPUID                                                              1002

 MEMORY| system memory details [Kb]
 MEMORY|                        rank 0           min           max       average
 MEMORY| MemTotal             65607472      65607472      65607472      65607472
 MEMORY| MemFree              58482032      58482032      58482032      58482032
 MEMORY| Buffers                 96104         96104         96104         96104
 MEMORY| Cached                4500220       4500220       4500220       4500220
 MEMORY| Slab                   307472        307472        307472        307472
 MEMORY| SReclaimable            67904         67904         67904         67904
 MEMORY| MemLikelyFree        63146260      63146260      63146260      63146260


 *** Fundamental physical constants (SI units) ***

 *** Literature: B. J. Mohr and B. N. Taylor,
 ***             CODATA recommended values of the fundamental physical
 ***             constants: 2006, Web Version 5.1
 ***             http://physics.nist.gov/constants

 Speed of light in vacuum [m/s]                             2.99792458000000E+08
 Magnetic constant or permeability of vacuum [N/A**2]       1.25663706143592E-06
 Electric constant or permittivity of vacuum [F/m]          8.85418781762039E-12
 Planck constant (h) [J*s]                                  6.62606896000000E-34
 Planck constant (h-bar) [J*s]                              1.05457162825177E-34
 Elementary charge [C]                                      1.60217648700000E-19
 Electron mass [kg]                                         9.10938215000000E-31
 Electron g factor [ ]                                     -2.00231930436220E+00
 Proton mass [kg]                                           1.67262163700000E-27
 Fine-structure constant                                    7.29735253760000E-03
 Rydberg constant [1/m]                                     1.09737315685270E+07
 Avogadro constant [1/mol]                                  6.02214179000000E+23
 Boltzmann constant [J/K]                                   1.38065040000000E-23
 Atomic mass unit [kg]                                      1.66053878200000E-27
 Bohr radius [m]                                            5.29177208590000E-11

 *** Conversion factors ***

 [u] -> [a.u.]                                              1.82288848426455E+03
 [Angstrom] -> [Bohr] = [a.u.]                              1.88972613288564E+00
 [a.u.] = [Bohr] -> [Angstrom]                              5.29177208590000E-01
 [a.u.] -> [s]                                              2.41888432650478E-17
 [a.u.] -> [fs]                                             2.41888432650478E-02
 [a.u.] -> [J]                                              4.35974393937059E-18
 [a.u.] -> [N]                                              8.23872205491840E-08
 [a.u.] -> [K]                                              3.15774647902944E+05
 [a.u.] -> [kJ/mol]                                         2.62549961709828E+03
 [a.u.] -> [kcal/mol]                                       6.27509468713739E+02
 [a.u.] -> [Pa]                                             2.94210107994716E+13
 [a.u.] -> [bar]                                            2.94210107994716E+08
 [a.u.] -> [atm]                                            2.90362800883016E+08
 [a.u.] -> [eV]                                             2.72113838565563E+01
 [a.u.] -> [Hz]                                             6.57968392072181E+15
 [a.u.] -> [1/cm] (wave numbers)                            2.19474631370540E+05
 [a.u./Bohr**2] -> [1/cm]                                   5.14048714338585E+03
 

 CELL_TOP| Volume [angstrom^3]:                                       125.000000
 CELL_TOP| Vector a [angstrom     5.000     0.000     0.000   |a| =     5.000000
 CELL_TOP| Vector b [angstrom     0.000     5.000     0.000   |b| =     5.000000
 CELL_TOP| Vector c [angstrom     0.000     0.000     5.000   |c| =     5.000000
 CELL_TOP| Angle (b,c), alpha [degree]:                                90.000000
 CELL_TOP| Angle (a,c), beta  [degree]:                                90.000000
 CELL_TOP| Angle (a,b), gamma [degree]:                                90.000000
 CELL_TOP| Numerically orthorhombic:                                         YES
 CELL_TOP| Periodicity                                                       XYZ

 GENERATE|  Preliminary Number of Bonds generated:                             0
 GENERATE|  Achieved consistency in connectivity generation.

 CELL| Volume [angstrom^3]:                                           125.000000
 CELL| Vector a [angstrom]:       5.000     0.000     0.000   |a| =     5.000000
 CELL| Vector b [angstrom]:       0.000     5.000     0.000   |b| =     5.000000
 CELL| Vector c [angstrom]:       0.000     0.000     5.000   |c| =     5.000000
 CELL| Angle (b,c), alpha [degree]:                                    90.000000
 CELL| Angle (a,c), beta  [degree]:                                    90.000000
 CELL| Angle (a,b), gamma [degree]:                                    90.000000
 CELL| Numerically orthorhombic:                                             YES
 CELL| Periodicity                                                           XYZ

 CELL_REF| Volume [angstrom^3]:                                       125.000000
 CELL_REF| Vector a [angstrom     5.000     0.000     0.000   |a| =     5.000000
 CELL_REF| Vector b [angstrom     0.000     5.000     0.000   |b| =     5.000000
 CELL_REF| Vector c [angstrom     0.000     0.000     5.000   |c| =     5.000000
 CELL_REF| Angle (b,c), alpha [degree]:                                90.000000
 CELL_REF| Angle (a,c), beta  [degree]:                                90.000000
 CELL_REF| Angle (a,b), gamma [degree]:                                90.000000
 CELL_REF| Numerically orthorhombic:                                         YES
 CELL_REF| Periodicity                                                       XYZ

 *******************************************************************************
 *******************************************************************************
 **                                                                           **
 **     #####                         ##              ##                      **
 **    ##   ##            ##          ##              ##                      **
 **   ##     ##                       ##            ######                    **
 **   ##     ##  ##   ##  ##   #####  ##  ##   ####   ##    #####    #####    **
 **   ##     ##  ##   ##  ##  ##      ## ##   ##      ##   ##   ##  ##   ##   **
 **   ##  ## ##  ##   ##  ##  ##      ####     ###    ##   ######   ######    **
 **    ##  ###   ##   ##  ##  ##      ## ##      ##   ##   ##       ##        **
 **     #######   #####   ##   #####  ##  ##  ####    ##    #####   ##        **
 **           ##                                                    ##        **
 **                                                                           **
 **                                                ... make the atoms dance   **
 **                                                                           **
 **            Copyright (C) by CP2K developers group (2000-2026)             **
 **                      J. Chem. Phys. 152, 194103 (2020)                    **
 **                                                                           **
 *******************************************************************************

 DFT| Spin restricted Kohn-Sham (RKS) calculation                            RKS
 DFT| Multiplicity                                                             1
 DFT| Number of spin states                                                    1
 DFT| Charge                                                                   0
 DFT| Self-interaction correction (SIC)                                       NO
 DFT| Cutoffs: density                                              1.000000E-10
 DFT|          gradient                                             1.000000E-10
 DFT|          tau                                                  1.000000E-10
 DFT|          cutoff_smoothing_range                               0.000000E+00
 DFT| XC density smoothing                                                  NONE
 DFT| XC derivatives                                                          PW

 FUNCTIONAL| PADE:
 FUNCTIONAL| S. Goedecker, M. Teter and J. Hutter, Phys. Rev. B 54, 1703 (1996) 


 QS| Method:                                                                 GPW
 QS| Density plane wave grid type                        NON-SPHERICAL FULLSPACE
 QS| Number of grid levels:                                                    4
 QS| Density cutoff [a.u.]:                                                100.0
 QS| Multi grid cutoff [a.u.]: 1) grid level                               100.0
 QS|                           2) grid level                                33.3
 QS|                           3) grid level                                11.1
 QS|                           4) grid level                                 3.7
 QS| Grid level progression factor:                                          3.0
 QS| Relative density cutoff [a.u.]:                                        20.0
 QS| Interaction thresholds: eps_pgf_orb:                                1.0E-05
 QS|                         eps_filter_matrix:                          0.0E+00
 QS|                         eps_core_charge:                            1.0E-12
 QS|                         eps_rho_gspace:                             1.0E-10
 QS|                         eps_rho_rspace:                             1.0E-10
 QS|                         eps_gvg_rspace:                             1.0E-05
 QS|                         eps_ppl:                                    1.0E-02
 QS|                         eps_ppnl:                                   1.0E-07


 ATOMIC KIND INFORMATION

  1. Atomic kind: O                                     Number of atoms:       1

     Orbital Basis Set                                             DZVP-GTH-PADE

       Number of orbital shell sets:                                           2
       Number of orbital shells:                                               5
       Number of primitive Cartesian functions:                                5
       Number of Cartesian basis functions:                                   14
       Number of spherical basis functions:                                   13
       Norm type:                                                              2

       Normalised Cartesian orbitals:

                        Set   Shell   Orbital            Exponent    Coefficient

                          1       1    2s                8.304404       0.526521
                                                         2.457945      -0.055011
                                                         0.759736      -0.404341
                                                         0.213639      -0.086026

                          1       2    3s                8.304404       0.000000
                                                         2.457945       0.000000
                                                         0.759736       0.000000
                                                         0.213639       0.223960

                          1       3    3px               8.304404      -2.000758
                                                         2.457945      -1.321077
                                                         0.759736      -0.480331
                                                         0.213639      -0.078647
                          1       3    3py               8.304404      -2.000758
                                                         2.457945      -1.321077
                                                         0.759736      -0.480331
                                                         0.213639      -0.078647
                          1       3    3pz               8.304404      -2.000758
                                                         2.457945      -1.321077
                                                         0.759736      -0.480331
                                                         0.213639      -0.078647

                          1       4    4px               8.304404       0.000000
                                                         2.457945       0.000000
                                                         0.759736       0.000000
                                                         0.213639       0.207033
                          1       4    4py               8.304404       0.000000
                                                         2.457945       0.000000
                                                         0.759736       0.000000
                                                         0.213639       0.207033
                          1       4    4pz               8.304404       0.000000
                                                         2.457945       0.000000
                                                         0.759736       0.000000
                                                         0.213639       0.207033

                          2       1    3dx2              0.800000       1.113825
                          2       1    3dxy              0.800000       1.929201
                          2       1    3dxz              0.800000       1.929201
                          2       1    3dy2              0.800000       1.113825
                          2       1    3dyz              0.800000       1.929201
                          2       1    3dz2              0.800000       1.113825

       Atomic covalent radius [Angstrom]:                                  0.730

       Atomic van der Waals radius [Angstrom]:                             1.520

     GTH Potential information for                                   GTH-PADE-q6

       Description:                       Goedecker-Teter-Hutter pseudopotential
                                           Goedecker et al., PRB 54, 1703 (1996)
                                          Hartwigsen et al., PRB 58, 3641 (1998)
                                                      Krack, TCA 114, 145 (2005)

       Gaussian exponent of the core charge distribution:               8.154466
       Electronic configuration (s p d ...):                               2   4

       Parameters of the local part of the GTH pseudopotential:

                          rloc        C1          C2          C3          C4
                        0.247621  -16.580318    2.395701

       Parameters of the non-local part of the GTH pseudopotential:

                   l      r(l)      h(i,j,l)

                   0    0.221786   18.266917
                   1    0.256829

  2. Atomic kind: H                                     Number of atoms:       2

     Orbital Basis Set                                             DZVP-GTH-PADE

       Number of orbital shell sets:                                           2
       Number of orbital shells:                                               3
       Number of primitive Cartesian functions:                                5
       Number of Cartesian basis functions:                                    5
       Number of spherical basis functions:                                    5
       Norm type:                                                              2

       Normalised Cartesian orbitals:

                        Set   Shell   Orbital            Exponent    Coefficient

                          1       1    1s                8.374435      -0.083834
                                                         1.805868      -0.155208
                                                         0.485253      -0.104875
                                                         0.165824      -0.128813

                          1       2    2s                8.374435       0.000000
                                                         1.805868       0.000000
                                                         0.485253       0.000000
                                                         0.165824       0.185202

                          2       1    2px               0.700000       0.912668
                          2       1    2py               0.700000       0.912668
                          2       1    2pz               0.700000       0.912668

       Atomic covalent radius [Angstrom]:                                  0.320

       Atomic van der Waals radius [Angstrom]:                             1.090

     GTH Potential information for                                   GTH-PADE-q1

       Description:                       Goedecker-Teter-Hutter pseudopotential
                                           Goedecker et al., PRB 54, 1703 (1996)
                                          Hartwigsen et al., PRB 58, 3641 (1998)
                                                      Krack, TCA 114, 145 (2005)

       Gaussian exponent of the core charge distribution:              12.500000
       Electronic configuration (s p d ...):                                   1

       Parameters of the local part of the GTH pseudopotential:

                          rloc        C1          C2          C3          C4
                        0.200000   -4.180237    0.725075


 MOLECULE KIND INFORMATION


 All atoms are their own molecule, skipping detailed information


 TOTAL NUMBERS AND MAXIMUM NUMBERS

  Total number of            - Atomic kinds:                                   2
                             - Atoms:                                          3
                             - Shell sets:                                     6
                             - Shells:                                        11
                             - Primitive Cartesian functions:                 15
                             - Cartesian basis functions:                     24
                             - Spherical basis functions:                     23

  Maximum angular momentum of- Orbital basis functions:                        2
                             - Local part of the GTH pseudopotential:          2
                             - Non-local part of the GTH pseudopotential:      0


 MODULE QUICKSTEP: ATOMIC COORDINATES IN ANGSTROM

   Atom Kind Element         X             Y             Z       Z(eff)     Mass
      1    1 O     8      0.000000      0.000000     -0.065587   6.0000  15.9994
      2    2 H     1      0.000000     -0.757136      0.520545   1.0000   1.0079
      3    2 H     1      0.000000      0.757136      0.520545   1.0000   1.0079



 SCF PARAMETERS         Density guess:                                    ATOMIC
                        --------------------------------------------------------
                        max_scf:                                             100
                        max_scf_history:                                       0
                        max_diis:                                              4
                        --------------------------------------------------------
                        eps_scf:                                        1.00E-05
                        eps_scf_history:                                0.00E+00
                        eps_diis:                                       0.00E+00
                        eps_eigval:                                     1.00E-05
                        --------------------------------------------------------
                        level_shift [a.u.]:                             0.000000
                        --------------------------------------------------------
                        No outer SCF

 PW_GRID| Information for grid number                                          1
 PW_GRID| Grid distributed over                                     8 processors
 PW_GRID| Real space group dimensions                                     8    1
 PW_GRID| the grid is blocked:                                                NO
 PW_GRID| Cutoff [a.u.]                                                    100.0
 PW_GRID| spherical cutoff:                                                   NO
 PW_GRID|   Bounds   1            -22      22                Points:          45
 PW_GRID|   Bounds   2            -22      22                Points:          45
 PW_GRID|   Bounds   3            -22      22                Points:          45
 PW_GRID| Volume element (a.u.^3)  0.9257E-02     Volume (a.u.^3)       843.5418
 PW_GRID| Grid span                                                    FULLSPACE
 PW_GRID|   Distribution                         Average         Max         Min
 PW_GRID|   G-Vectors                            11390.6       11430       11385
 PW_GRID|   G-Rays                                 253.1         254         253
 PW_GRID|   Real Space Points                    11390.6       12150       10125

 PW_GRID| Information for grid number                                          2
 PW_GRID| Number of the reference grid                                         1
 PW_GRID| Grid distributed over                                     8 processors
 PW_GRID| Real space group dimensions                                     8    1
 PW_GRID| the grid is blocked:                                                NO
 PW_GRID| Cutoff [a.u.]                                                     33.3
 PW_GRID| spherical cutoff:                                                   NO
 PW_GRID|   Bounds   1            -12      12                Points:          25
 PW_GRID|   Bounds   2            -12      12                Points:          25
 PW_GRID|   Bounds   3            -12      12                Points:          25
 PW_GRID| Volume element (a.u.^3)  0.5399E-01     Volume (a.u.^3)       843.5418
 PW_GRID| Grid span                                                    FULLSPACE
 PW_GRID|   Distribution                         Average         Max         Min
 PW_GRID|   G-Vectors                             1953.1        2025        1900
 PW_GRID|   G-Rays                                  78.1          81          76
 PW_GRID|   Real Space Points                     1953.1        2500        1875

 PW_GRID| Information for grid number                                          3
 PW_GRID| Number of the reference grid                                         1
 PW_GRID| Grid distributed over                                     8 processors
 PW_GRID| Real space group dimensions                                     8    1
 PW_GRID| the grid is blocked:                                                NO
 PW_GRID| Cutoff [a.u.]                                                     11.1
 PW_GRID| spherical cutoff:                                                   NO
 PW_GRID|   Bounds   1             -7       7                Points:          15
 PW_GRID|   Bounds   2             -7       7                Points:          15
 PW_GRID|   Bounds   3             -7       7                Points:          15
 PW_GRID| Volume element (a.u.^3)  0.2499         Volume (a.u.^3)       843.5418
 PW_GRID| Grid span                                                    FULLSPACE
 PW_GRID|   Distribution                         Average         Max         Min
 PW_GRID|   G-Vectors                              421.9         435         405
 PW_GRID|   G-Rays                                  28.1          29          27
 PW_GRID|   Real Space Points                      421.9         450         225

 PW_GRID| Information for grid number                                          4
 PW_GRID| Number of the reference grid                                         1
 PW_GRID| Grid distributed over                                     8 processors
 PW_GRID| Real space group dimensions                                     8    1
 PW_GRID| the grid is blocked:                                                NO
 PW_GRID| Cutoff [a.u.]                                                      3.7
 PW_GRID| spherical cutoff:                                                   NO
 PW_GRID|   Bounds   1             -4       4                Points:           9
 PW_GRID|   Bounds   2             -4       4                Points:           9
 PW_GRID|   Bounds   3             -4       4                Points:           9
 PW_GRID| Volume element (a.u.^3)   1.157         Volume (a.u.^3)       843.5418
 PW_GRID| Grid span                                                    FULLSPACE
 PW_GRID|   Distribution                         Average         Max         Min
 PW_GRID|   G-Vectors                               91.1         117          72
 PW_GRID|   G-Rays                                  10.1          13           8
 PW_GRID|   Real Space Points                       91.1         162          81

 POISSON| Solver                                                        PERIODIC
 POISSON| Periodicity                                                        XYZ

 RS_GRID| Information for grid number                                          1
 RS_GRID|   Bounds   1            -22      22                Points:          45
 RS_GRID|   Bounds   2            -22      22                Points:          45
 RS_GRID|   Bounds   3            -22      22                Points:          45
 RS_GRID| Real space fully replicated
 RS_GRID| Group size                                                           1

 RS_GRID| Information for grid number                                          2
 RS_GRID|   Bounds   1            -12      12                Points:          25
 RS_GRID|   Bounds   2            -12      12                Points:          25
 RS_GRID|   Bounds   3            -12      12                Points:          25
 RS_GRID| Real space fully replicated
 RS_GRID| Group size                                                           1

 RS_GRID| Information for grid number                                          3
 RS_GRID|   Bounds   1             -7       7                Points:          15
 RS_GRID|   Bounds   2             -7       7                Points:          15
 RS_GRID|   Bounds   3             -7       7                Points:          15
 RS_GRID| Real space fully replicated
 RS_GRID| Group size                                                           1

 RS_GRID| Information for grid number                                          4
 RS_GRID|   Bounds   1             -4       4                Points:           9
 RS_GRID|   Bounds   2             -4       4                Points:           9
 RS_GRID|   Bounds   3             -4       4                Points:           9
 RS_GRID| Real space fully replicated
 RS_GRID| Group size                                                           1

 Extrapolation method: initial_guess

 Atomic guess: The first density matrix is obtained in terms of atomic orbitals
               and electronic configurations assigned to each atomic kind

 Guess for atomic kind: O

 Electronic structure
    Total number of core electrons                                          2.00
    Total number of valence electrons                                       6.00
    Total number of electrons                                               8.00
    Multiplicity                                                   not specified
    S   [  2.00] 2.00
    P      4.00


 *******************************************************************************
                  Iteration          Convergence                     Energy [au]
 *******************************************************************************
                          1        0.646148                     -15.636779198680
                          2        0.563412                     -15.645844224453
                          3        0.777098E-02                 -15.702646985730
                          4        0.181933E-02                 -15.702656239616
                          5        0.462182E-03                 -15.702656742008
                          6        0.259018E-03                 -15.702656765778
                          7        0.325657E-06                 -15.702656776662

 Energy components [Hartree]           Total Energy ::          -15.702656776662
                                        Band Energy ::           -2.982158420927
                                     Kinetic Energy ::           11.942299328633
                                   Potential Energy ::          -27.644956105295
                                      Virial (-V/T) ::            2.314877172691
                                        Core Energy ::          -26.240315954047
                                          XC Energy ::           -3.168822192398
                                     Coulomb Energy ::           13.706481369783
                       Total Pseudopotential Energy ::          -38.217118818507
                       Local Pseudopotential Energy ::          -39.522372330173
                    Nonlocal Pseudopotential Energy ::            1.305253511666
                                        Confinement ::            0.345035358268

 Orbital energies  State     L     Occupation   Energy[a.u.]          Energy[eV]

                       1     0          2.000      -0.854038          -23.239545

                       1     1          4.000      -0.318521           -8.667392


 Total Electron Density at R=0:                                         0.000667

 Guess for atomic kind: H

 Electronic structure
    Total number of core electrons                                          0.00
    Total number of valence electrons                                       1.00
    Total number of electrons                                               1.00
    Multiplicity                                                   not specified
    S      1.00


 *******************************************************************************
                  Iteration          Convergence                     Energy [au]
 *******************************************************************************
                          1        0.316011E-02                  -0.422390558413
                          2        0.333152E-03                  -0.422399635530
                          3        0.114302E-06                  -0.422399737491

 Energy components [Hartree]           Total Energy ::           -0.422399737491
                                        Band Energy ::           -0.193019372217
                                     Kinetic Energy ::            0.475009752129
                                   Potential Energy ::           -0.897409489620
                                      Virial (-V/T) ::            1.889244348347
                                        Core Energy ::           -0.478923189740
                                          XC Energy ::           -0.248206713182
                                     Coulomb Energy ::            0.304730165431
                       Total Pseudopotential Energy ::           -0.971460622099
                       Local Pseudopotential Energy ::           -0.971460622099
                    Nonlocal Pseudopotential Energy ::            0.000000000000
                                        Confinement ::            0.175276802303

 Orbital energies  State     L     Occupation   Energy[a.u.]          Energy[eV]

                       1     0          1.000      -0.193019           -5.252324


 Total Electron Density at R=0:                                         0.237353
 Re-scaling the density matrix to get the right number of electrons
                  # Electrons              Trace(P)               Scaling factor
                            8                 8.002                        1.000

 Number of electrons:                                                          8
 Number of occupied orbitals:                                                  4
 Number of molecular orbitals:                                                 4

 Number of orbital functions:                                                 23
 Number of independent orbital functions:                                     23


 SCF WAVEFUNCTION OPTIMIZATION

  ----------------------------------- OT ---------------------------------------
  Minimizer      : CG                  : conjugate gradient
  Preconditioner : FULL_KINETIC        : inversion of T + eS
  Precond_solver : DEFAULT
  Line search    : 2PNT                : 2 energies, one gradient
  stepsize       :    0.15000000                  energy_gap     :    0.20000000
  eps_taylor     :   0.10000E-15                  max_taylor     :             4
  ----------------------------------- OT ---------------------------------------

  Step     Update method      Time    Convergence         Total energy    Change
  ------------------------------------------------------------------------------
     1 OT CG       0.15E+00    0.0     0.14373206       -15.4223920974 -1.54E+01
     - OT LS       0.33E+00    0.0                      -15.6421644484
     2 OT CG       0.33E+00    0.0     0.10904569       -15.7220577852 -3.00E-01
     - OT LS       0.21E+00    0.0                      -15.7981775642
     3 OT CG       0.21E+00    0.0     0.06740082       -15.8308714340 -1.09E-01
     - OT LS       0.79E+00    0.0                      -15.9076457245
     4 OT CG       0.79E+00    0.0     0.12126515       -15.9670556044 -1.36E-01
     - OT LS       0.28E+00    0.0                      -15.5339842224
     5 OT CG       0.28E+00    0.0     0.10365363       -16.1391343873 -1.72E-01
     - OT LS       0.77E+00    0.0                      -16.3448047960
     6 OT CG       0.77E+00    0.0     0.15779762       -16.4276275953 -2.88E-01
     - OT LS       0.22E+00    0.0                      -15.4196358972
     7 OT CG       0.22E+00    0.0     0.13757926       -16.6290174283 -2.01E-01
     - OT LS       0.28E+00    0.0                      -16.8580428878
     8 OT CG       0.28E+00    0.0     0.06807159       -16.8668282870 -2.38E-01
     - OT LS       0.47E+00    0.0                      -16.9505391385
     9 OT CG       0.47E+00    0.0     0.06903550       -16.9656365888 -9.88E-02
     - OT LS       0.40E+00    0.0                      -17.0458873361
    10 OT CG       0.40E+00    0.0     0.06607294       -17.0492149658 -8.36E-02
     - OT LS       0.31E+00    0.0                      -17.1063900543
    11 OT CG       0.31E+00    0.0     0.03557773       -17.1113003629 -6.21E-02
     - OT LS       0.43E+00    0.0                      -17.1344345375
    12 OT CG       0.43E+00    0.0     0.02459445       -17.1364170307 -2.51E-02
     - OT LS       0.53E+00    0.0                      -17.1506998261
    13 OT CG       0.53E+00    0.0     0.01540445       -17.1512754600 -1.49E-02
     - OT LS       0.46E+00    0.0                      -17.1562655165
    14 OT CG       0.46E+00    0.0     0.01208180       -17.1563879567 -5.11E-03
     - OT LS       0.37E+00    0.0                      -17.1587048027
    15 OT CG       0.37E+00    0.0     0.00860418       -17.1588520206 -2.46E-03
     - OT LS       0.34E+00    0.0                      -17.1600222087
    16 OT CG       0.34E+00    0.0     0.00586168       -17.1600279964 -1.18E-03
     - OT LS       0.32E+00    0.0                      -17.1605299287
    17 OT CG       0.32E+00    0.0     0.00370603       -17.1605331478 -5.05E-04
     - OT LS       0.47E+00    0.0                      -17.1607981077
    18 OT CG       0.47E+00    0.0     0.00298712       -17.1608271657 -2.94E-04
     - OT LS       0.62E+00    0.0                      -17.1610655663
    19 OT CG       0.62E+00    0.0     0.00306120       -17.1610809213 -2.54E-04
     - OT LS       0.51E+00    0.0                      -17.1612891250
    20 OT CG       0.51E+00    0.0     0.00234306       -17.1612995584 -2.19E-04
     - OT LS       0.45E+00    0.0                      -17.1614122374
    21 OT CG       0.45E+00    0.0     0.00144834       -17.1614138834 -1.14E-04
     - OT LS       0.45E+00    0.0                      -17.1614576693
    22 OT CG       0.45E+00    0.0     0.00116322       -17.1614576696 -4.38E-05
     - OT LS       0.30E+00    0.0                      -17.1614720246
    23 OT CG       0.30E+00    0.0     0.00082582       -17.1614766137 -1.89E-05
     - OT LS       0.44E+00    0.0                      -17.1614890263
    24 OT CG       0.44E+00    0.0     0.00063645       -17.1614902581 -1.36E-05
     - OT LS       0.45E+00    0.0                      -17.1614985897
    25 OT CG       0.45E+00    0.0     0.00047826       -17.1614985965 -8.34E-06
     - OT LS       0.45E+00    0.0                      -17.1615033517
    26 OT CG       0.45E+00    0.0     0.00028029       -17.1615033521 -4.76E-06
     - OT LS       0.48E+00    0.0                      -17.1615050934
    27 OT CG       0.48E+00    0.0     0.00018936       -17.1615051011 -1.75E-06
     - OT LS       0.41E+00    0.0                      -17.1615057639
    28 OT CG       0.41E+00    0.0     0.00013995       -17.1615057836 -6.82E-07
     - OT LS       0.35E+00    0.0                      -17.1615060910
    29 OT CG       0.35E+00    0.0     0.00009011       -17.1615061007 -3.17E-07
     - OT LS       0.38E+00    0.0                      -17.1615062423
    30 OT CG       0.38E+00    0.0     0.00007359       -17.1615062432 -1.42E-07
     - OT LS       0.33E+00    0.0                      -17.1615063232
    31 OT CG       0.33E+00    0.0     0.00004226       -17.1615063252 -8.20E-08
     - OT LS       0.39E+00    0.0                      -17.1615063566
    32 OT CG       0.39E+00    0.0     0.00002606       -17.1615063575 -3.23E-08
     - OT LS       0.44E+00    0.0                      -17.1615063711
    33 OT CG       0.44E+00    0.0     0.00002026       -17.1615063712 -1.37E-08
     - OT LS       0.46E+00    0.0                      -17.1615063799
    34 OT CG       0.46E+00    0.0     0.00001263       -17.1615063799 -8.66E-09
     - OT LS       0.55E+00    0.0                      -17.1615063838
    35 OT CG       0.55E+00    0.0     0.00000986       -17.1615063839 -4.05E-09

  *** SCF run converged in    35 steps ***


  Electronic density on regular grids:         -7.9999989264        0.0000010736
  Core density on regular grids:                8.0000000661        0.0000000661
  Total charge density on r-space grids:        0.0000011397
  Total charge density g-space grids:           0.0000011397

  Overlap energy of the core charge distribution:               0.00000008696883
  Self energy of the core charge distribution:                -43.83289054591484
  Core Hamiltonian energy:                                     12.89825547385173
  Hartree energy:                                              17.92145977942703
  Exchange-correlation energy:                                 -4.14833117825175

  Total energy:                                               -17.16150638391899

 !-----------------------------------------------------------------------------!
                     Mulliken Population Analysis

 #  Atom  Element  Kind  Atomic population                           Net charge
       1     O        1          6.638497                             -0.638497
       2     H        2          0.680703                              0.319297
       3     H        2          0.680799                              0.319201
 # Total charge                              8.000000                  0.000000

 !-----------------------------------------------------------------------------!

 !-----------------------------------------------------------------------------!
                           Hirshfeld Charges

  #Atom  Element  Kind  Ref Charge     Population                    Net charge
      1       O      1       6.000          7.126                        -1.126
      2       H      2       1.000          0.436                         0.564
      3       H      2       1.000          0.436                         0.564

  Total Charge                                                            0.002
 !-----------------------------------------------------------------------------!

 ENERGY| Total FORCE_EVAL ( QS ) energy [hartree]            -17.161506385666030

 -------------------------------------------------------------------------------
 -                                                                             -
 -                                DBCSR STATISTICS                             -
 -                                                                             -
 -------------------------------------------------------------------------------
 COUNTER                                    TOTAL       BLAS       SMM       ACC
 flops     5 x    13 x     4                36920       0.0%    100.0%      0.0%     
 flops    13 x     5 x     4                36920       0.0%    100.0%      0.0%     
 flops     5 x     4 x     4                38720       0.0%    100.0%      0.0%     
 flops     5 x     5 x     4                42600       0.0%    100.0%      0.0%     
 flops     4 x     4 x     4                48256       0.0%    100.0%      0.0%     
 flops    18 x     4 x     5                51840       0.0%    100.0%      0.0%     
 flops     4 x     4 x     5                55360       0.0%    100.0%      0.0%     
 flops    18 x     4 x    13                67392       0.0%    100.0%      0.0%     
 flops     4 x     4 x    13                71968       0.0%    100.0%      0.0%     
 flops    13 x    13 x     4                95992       0.0%    100.0%      0.0%     
 flops     5 x     4 x     5               104800       0.0%    100.0%      0.0%     
 flops    13 x     4 x     5               117520       0.0%    100.0%      0.0%     
 flops     5 x     4 x    13               136240       0.0%    100.0%      0.0%     
 flops    18 x     4 x     4               139392       0.0%    100.0%      0.0%     
 flops    13 x     4 x    13               152776       0.0%    100.0%      0.0%     
 flops inhomo. stacks                           0       0.0%      0.0%      0.0%
 flops total                         1.196696E+06       0.0%    100.0%      0.0%
 flops max/rank                    904.456000E+03       0.0%    100.0%      0.0%
 matmuls inhomo. stacks                         0       0.0%      0.0%      0.0%
 matmuls total                               3039       0.0%    100.0%      0.0%
 number of processed stacks                  3039       0.0%    100.0%      0.0%
 average stack size                                     0.0       1.0       0.0
 marketing flops                     1.285472E+06
 -------------------------------------------------------------------------------
 # multiplications                           1013
 max memory usage/rank               3.448279E+09
 # max total images/rank                        2
 # max 3D layers                                1
 # MPI messages exchanged                   40520
 MPI messages size (bytes):
  total size                         3.478040E+06
  min size                           0.000000E+00
  max size                           1.872000E+03
  average size                      85.835144E+00
 MPI breakdown and total messages size (bytes):
             size <=      128               33224                   224000
       128 < size <=     8192                7296                  3254040
      8192 < size <=    32768                   0                        0
     32768 < size <=   131072                   0                        0
    131072 < size <=  4194304                   0                        0
   4194304 < size <= 16777216                   0                        0
  16777216 < size                               0                        0
 -------------------------------------------------------------------------------

 *** WARNING in dbcsr_mm.F:301 :: Using a non-square number of MPI ranks ***
 *** might lead to poor performance. Used ranks: 8 Suggested: 9 16       ***

 -------------------------------------------------------------------------------
 -                                                                             -
 -                      DBCSR MESSAGE PASSING PERFORMANCE                      -
 -                                                                             -
 -------------------------------------------------------------------------------
 ROUTINE             CALLS      AVE VOLUME [Bytes]
 MP_Bcast               16                     12.
 MP_Allreduce         4887                      8.
 MP_Alltoall          3891                    241.
 MP_ISend            14666                    134.
 MP_IRecv            14404                     79.
 -------------------------------------------------------------------------------

 -------------------------------------------------------------------------------
 -                                                                             -
 -                                GRID STATISTICS                              -
 -                                                                             -
 -------------------------------------------------------------------------------
 LP    KERNEL             BACKEND                              COUNT     PERCENT
 1     collocate ortho    CPU                                  13720      25.03%
 0     collocate ortho    CPU                                  12740      23.24%
 2     collocate ortho    CPU                                   7840      14.30%
 1     integrate ortho    CPU                                   7042      12.85%
 0     integrate ortho    CPU                                   6370      11.62%
 2     integrate ortho    CPU                                   4116       7.51%
 3     collocate ortho    CPU                                   1820       3.32%
 3     integrate ortho    CPU                                   1022       1.86%
 4     collocate ortho    CPU                                     70       0.13%
 4     integrate ortho    CPU                                     61       0.11%
 0     collocate general  CPU                                      6       0.01%
 0     integrate general  CPU                                      3       0.01%
 1     integrate general  CPU                                      3       0.01%
 5     integrate ortho    CPU                                      1       0.00%
 -------------------------------------------------------------------------------

 -------------------------------------------------------------------------------
 -                                                                             -
 -                          OFFLOAD MEMPOOL STATISTICS                         -
 -                                                                             -
 -------------------------------------------------------------------------------
 Memory consumption                Number of allocations  Used [MiB]  Size [MiB]
 Device                                                6           1           1
 Host                                                  6           1           1
 -------------------------------------------------------------------------------

 MEMORY| Estimated peak process memory [MiB]                                 247

 -------------------------------------------------------------------------------
 ----                             MULTIGRID INFO                            ----
 -------------------------------------------------------------------------------
 count for grid        1:          15915          cutoff [a.u.]          100.00
 count for grid        2:           5540          cutoff [a.u.]           33.33
 count for grid        3:           1462          cutoff [a.u.]           11.11
 count for grid        4:             64          cutoff [a.u.]            3.70
 total gridlevel count  :          22981

 -------------------------------------------------------------------------------
 -                                                                             -
 -                         MESSAGE PASSING PERFORMANCE                         -
 -                                                                             -
 -------------------------------------------------------------------------------

 ROUTINE             CALLS      AVE VOLUME [Bytes]
 MP_Group                4
 MP_Bcast              815                  25919.
 MP_Allreduce         2477                     32.
 MP_Sync                77
 MP_Alltoall           531                 333930.
 MP_SendRecv          1974                  30997.
 MP_ISendRecv         1022                  31437.
 MP_Wait              1022
 MP_comm_split          73
 -------------------------------------------------------------------------------


 -------------------------------------------------------------------------------
 -                                                                             -
 -                           R E F E R E N C E S                               -
 -                                                                             -
 -------------------------------------------------------------------------------
 
 CP2K version 2026.1, the CP2K developers group (2026).
 CP2K is freely available from https://www.cp2k.org/ .
 
 T. D. Kuehne, M. Iannuzzi, M. Del Ben, V. V. Rybkin, P. Seewald, F. Stein, T. 
 Laino, R. Z. Khaliullin, O. Schuett, F. Schiffmann, D. Golze, J. Wilhelm, S. 
 Chulkov, M. H. Bani-Hashemian, V. Weber, U. Borstnik, M. Taillefumier, A. S. 
 Jakobovits, A. Lazzaro, H. Pabst, T. Mueller, R. Schade, M. Guidon, S. 
 Andermatt, N. Holmberg, G. K. Schenter, A. Hehn, A. Bussy, F. Belleflamme, G. 
 Tabacchi, A. Gloess, M. Lass, I. Bethune, C. J. Mundy, C. Plessl, M. Watkins, 
 J. VandeVondele, M. Krack, J. Hutter.
 J. Chem. Phys. 152, 194103 (2020).
 CP2K: An electronic structure and molecular dynamics software package - 
 Quickstep: Efficient and accurate electronic structure calculations.
 https://doi.org/10.1063/5.0007045

 O. Schuett, P. Messmer, J. Hutter, J. VandeVondele.
 Electronic Structure Calculations on Graphics Processing Units, 173-190 (2016).
 GPU-Accelerated Sparse Matrix-Matrix Multiplication for Linear Scaling Density 
 Functional Theory.
 https://doi.org/10.1002/9781118670712.ch8

 A. Heinecke, G. Henry, M. Hutchinson, H. Pabst.
 Proceedings of Intl. Supercomputing Conference, 981-991 (2016).
 LIBXSMM: Accelerating Small Matrix Multiplications by Runtime Code Generation.
 https://doi.org/10.1109/SC.2016.83

 J. Hutter, M. Iannuzzi, F. Schiffmann, J. VandeVondele.
 WIREs Comput Mol Sci. 4, 15-25 (2014).
 CP2K: atomistic simulations of condensed matter systems.
 https://doi.org/10.1002/wcms.1159

 U. Borstnik, J. VandeVondele, V. Weber, J. Hutter.
 Parallel Comput. 40, 47-58 (2014).
 Sparse matrix multiplication: The distributed block-compressed sparse row 
 library.
 https://doi.org/10.1016/j.parco.2014.03.012

 A. Marek, V. Blum, R. Johanni, V. Havu, B. Lang, T. Auckenthaler, A. Heinecke, 
 H. Bungartz, H. Lederer.
 J. Phys. Condens. Matter 26, 213201 (2014).
 The ELPA library: scalable parallel eigenvalue solutions for electronic 
 structure theory and computational science.
 https://doi.org/10.1088/0953-8984/26/21/213201

 J. VandeVondele, M. Krack, F. Mohamed, M. Parrinello, T. Chassaing, J. Hutter.
 Comput. Phys. Commun. 167, 103-128 (2005).
 QUICKSTEP: Fast and accurate density functional calculations using a mixed 
 Gaussian and plane waves approach.
 https://doi.org/10.1016/j.cpc.2004.12.014

 M. Krack.
 Theor. Chem. Acc. 114, 145-152 (2005).
 Pseudopotentials for H to Kr optimized for gradient-corrected 
 exchange-correlation functionals.
 https://doi.org/10.1007/s00214-005-0655-y

 M. Frigo, S. G. Johnson.
 Proc. IEEE 93, 216-231 (2005).
 The design and implementation of FFTW3.
 https://doi.org/10.1109/JPROC.2004.840301

 J. VandeVondele, J. Hutter.
 J. Chem. Phys. 118, 4365-4369 (2003).
 An efficient orbital transformation method for electronic structure 
 calculations.
 https://doi.org/10.1063/1.1543154

 C. Hartwigsen, S. Goedecker, J. Hutter.
 Phys. Rev. B 58, 3641-3662 (1998).
 Relativistic separable dual-space Gaussian pseudopotentials from H to Rn.
 https://doi.org/10.1103/PhysRevB.58.3641

 G. Lippert, J. Hutter, M. Parrinello.
 Mol. Phys. 92, 477-487 (1997).
 A hybrid Gaussian and plane wave density functional scheme.
 https://doi.org/10.1080/002689797170220

 S. Goedecker, M. Teter, J. Hutter.
 Phys. Rev. B 54, 1703-1710 (1996).
 Separable dual-space Gaussian pseudopotentials.
 https://doi.org/10.1103/PhysRevB.54.1703


 -------------------------------------------------------------------------------
 -                                                                             -
 -                                T I M I N G                                  -
 -                                                                             -
 -------------------------------------------------------------------------------
 SUBROUTINE                       CALLS  ASD         SELF TIME        TOTAL TIME
                                MAXIMUM       AVERAGE  MAXIMUM  AVERAGE  MAXIMUM
 CP2K                                 1  1.0    0.003    0.003    0.456    0.456
 qs_forces                            1  2.0    0.000    0.000    0.416    0.416
 qs_energies                          1  3.0    0.000    0.000    0.413    0.413
 scf_env_do_scf                       1  4.0    0.000    0.000    0.405    0.405
 scf_env_do_scf_inner_loop           69  5.0    0.001    0.001    0.400    0.401
 qs_scf_new_mos                      69  6.0    0.000    0.000    0.207    0.207
 qs_scf_loop_do_ot                   69  7.0    0.000    0.000    0.207    0.207
 ot_scf_mini                         69  8.0    0.000    0.000    0.195    0.195
 dbcsr_multiply_generic            1013 10.8    0.008    0.009    0.171    0.179
 qs_rho_update_rho_low               70  6.0    0.000    0.000    0.095    0.096
 calculate_rho_elec                  70  7.0    0.002    0.002    0.095    0.096
 density_rs2pw                       70  8.0    0.001    0.001    0.071    0.087
 qs_ot_get_p                         70  9.0    0.000    0.000    0.085    0.085
 rebuild_ks_matrix                   70  7.0    0.000    0.000    0.082    0.082
 qs_ks_build_kohn_sham_matrix        70  8.0    0.002    0.002    0.082    0.082
 qs_ks_update_qs_env                 70  6.0    0.000    0.000    0.081    0.081
 ot_mini                             69  9.0    0.000    0.000    0.079    0.079
 qs_ot_get_derivative                35 10.0    0.000    0.000    0.072    0.072
 make_m2s                          2026 11.8    0.005    0.005    0.070    0.071
 qs_ot_p2m_diag                      69 10.0    0.000    0.000    0.063    0.064
 transfer_rs2pw                     282  9.0    0.000    0.000    0.039    0.055
 qs_ot_get_derivative_diag           34 11.0    0.000    0.000    0.055    0.055
 multiply_cannon                   1013 11.8    0.012    0.013    0.049    0.051
 transfer_rs2pw_100                  72 10.0    0.005    0.005    0.035    0.051
 make_images                       2026 12.8    0.010    0.010    0.047    0.048
 mp_sendrecv_dv                    1974 11.0    0.032    0.048    0.032    0.048
 grid_collocate_task_list            70  8.0    0.022    0.046    0.022    0.046
 fft_wrap_pw1pw2                    531  9.8    0.001    0.001    0.045    0.046
 cp_dbcsr_syevd                      69 11.0    0.001    0.001    0.038    0.038
 sum_up_and_integrate                36  8.9    0.000    0.000    0.025    0.037
 integrate_v_rspace                  36  9.9    0.000    0.000    0.025    0.036
 fft_wrap_pw1pw2_100                213 10.5    0.002    0.002    0.035    0.036
 fft3d_ps                           531 11.8    0.019    0.020    0.033    0.034
 mp_sum_l                          4867 11.9    0.022    0.032    0.022    0.032
 create_qs_kind_set                   1  2.0    0.000    0.000    0.031    0.031
 read_qs_kind                         2  3.0    0.010    0.014    0.031    0.031
 parser_read_line                  6480  4.0    0.001    0.001    0.021    0.023
 parser_read_line_low                10  5.0    0.002    0.008    0.021    0.023
 multiply_cannon_loop              1013 12.8    0.005    0.006    0.020    0.023
 cp_fm_syevd                         73 11.8    0.000    0.000    0.022    0.022
 write_mo_set_to_restart             69  6.0    0.003    0.018    0.018    0.022
 broadcast_input_information         10  6.0    0.004    0.005    0.019    0.022
 qs_ot_get_orbitals                  69  9.0    0.000    0.000    0.021    0.022
 grid_integrate_task_list            36 10.9    0.008    0.020    0.008    0.020
 dbcsr_make_images_dense           1798 13.1    0.003    0.003    0.013    0.018
 mp_bcast_i_src                      40  7.0    0.012    0.016    0.012    0.016
 write_mo_set_low                     4  7.0    0.000    0.000    0.015    0.016
 subspace_eigenvalues_ks_fm           4  8.0    0.000    0.000    0.015    0.016
 potential_pw2rs                     36 10.9    0.000    0.000    0.016    0.016
 copy_dbcsr_to_fm                    86 11.3    0.000    0.000    0.015    0.016
 dbcsr_create_new                 14521 13.5    0.010    0.011    0.014    0.015
 make_images_sizes                 2026 13.8    0.001    0.001    0.013    0.015
 dbcsr_make_dense_low              3525 13.9    0.004    0.005    0.009    0.015
 mp_alltoall_i44                   2026 14.8    0.012    0.015    0.012    0.015
 dbcsr_complete_redistribute        171 12.4    0.002    0.002    0.014    0.014
 cp_fm_redistribute_end              73 12.8    0.009    0.014    0.009    0.014
 mp_sum_iv                          314 12.1    0.012    0.014    0.012    0.014
 qs_vxc_create                       70  9.0    0.000    0.000    0.013    0.014
 pw_poisson_solve                    70  9.0    0.000    0.000    0.013    0.013
 mp_alltoall_z22v                   531 13.8    0.011    0.013    0.011    0.013
 make_images_data                  2026 13.8    0.004    0.005    0.010    0.013
 calculate_dm_sparse                 70  8.0    0.000    0.000    0.012    0.012
 xc_rho_set_and_dset_create          70 11.0    0.001    0.001    0.010    0.011
 arnoldi_extremal                    70 10.0    0.000    0.000    0.010    0.010
 arnoldi_normal_ev                   70 11.0    0.000    0.000    0.010    0.010
 cp_fm_syevd_base                    73 12.8    0.005    0.010    0.005    0.010
 yz_to_x                            317 12.3    0.002    0.002    0.008    0.009
 -------------------------------------------------------------------------------

 The number of warnings for this run is : 1
 
 -------------------------------------------------------------------------------
  **** **** ******  **  PROGRAM ENDED AT                 2026-04-28 20:33:31.542
 ***** ** ***  *** **   PROGRAM RAN ON                                      n176
 **    ****   ******    PROGRAM RAN BY                                     lab07
 ***** **    ** ** **   PROGRAM PROCESS ID                                  8225
  **** **  *******  **  PROGRAM STOPPED IN /DATA/lab07/hglee/cp2k_agent/test/lev
                                           el2
