 DBCSR| CPU Multiplication driver                                           XSMM (U)
 DBCSR| Multrec recursion limit                                              512 (U)
 DBCSR| Multiplication stack size                                           1000 (D)
 DBCSR| Maximum elements for images                                    UNLIMITED (U)
 DBCSR| Multiplicative factor virtual images                                   1 (U)
 DBCSR| Use multiplication densification                                       T (D)
 DBCSR| Multiplication size stacks                                             3 (U)
 DBCSR| Use memory pool for CPU allocation                                     F (U)
 DBCSR| Number of 3D layers                                               SINGLE (U)
 DBCSR| Use MPI memory allocation                                              F (U)
 DBCSR| Use RMA algorithm                                                      F (U)
 DBCSR| Use Communication thread                                               T (U)
 DBCSR| Communication thread load                                             87 (D)
 DBCSR| MPI: My process id                                                     0
 DBCSR| MPI: Number of processes                                               8
 DBCSR| OMP: Current number of threads                                         1
 DBCSR| OMP: Max number of threads                                             1
 DBCSR| Split modifier for TAS multiplication algorithm                  1.0E+00 (U)


  **** **** ******  **  PROGRAM STARTED AT               2026-05-08 17:19:18.460
 ***** ** ***  *** **   PROGRAM STARTED ON                                  n167
 **    ****   ******    PROGRAM STARTED BY                                 lab07
 ***** **    ** ** **   PROGRAM PROCESS ID                                114565
  **** **  *******  **  PROGRAM STARTED IN /DATA/lab07/hglee/cp2k_agent/test/lev
                                           el1

 CP2K| version string:                                       CP2K version 2026.1
 CP2K| source code revision number:                                  git:5e54ba2
 CP2K| cp2kflags: omp libint fftw3 libxc elpa parallel scalapack cosma xsmm spgl
 CP2K|            ib mkl sirius libvori libbqb libvdwxc hdf5
 CP2K| is freely available from                            https://www.cp2k.org/
 CP2K| Program compiled at                                   2026-03-01 16:41:12
 CP2K| Program compiled on                                                master
 CP2K| Program compiled for                                               x86_64
 CP2K| Data directory path                           /share/cp2k-2026.1_mkl/data
 CP2K| Input file name                                           L1_Official.inp

 GLOBAL| Force Environment number                                              1
 GLOBAL| Basis set file name                                      GTH_BASIS_SETS
 GLOBAL| Potential file name                                      GTH_POTENTIALS
 GLOBAL| MM Potential file name                                     MM_POTENTIAL
 GLOBAL| Coordinate file name                                      __STD_INPUT__
 GLOBAL| Method name                                                        CP2K
 GLOBAL| Project name                                                     HCN-TS
 GLOBAL| Run type                                                        GEO_OPT
 GLOBAL| FFT library                                                       FFTW3
 GLOBAL| Diagonalization library                                            ELPA
 GLOBAL| Cholesky decomposition library                                ScaLAPACK
 GLOBAL| DGEMM library                                                      BLAS
 GLOBAL| Minimum number of eigenvectors for ELPA usage                        16
 GLOBAL| Orthonormality check for eigenvectors                          DISABLED
 GLOBAL| Matrix multiplication library                                     COSMA
 GLOBAL| All-to-all communication in single precision                          F
 GLOBAL| FFTs using library dependent lengths                                  F
 GLOBAL| Grid backend                                                       AUTO
 GLOBAL| Global print level                                               MEDIUM
 GLOBAL| MPI I/O enabled                                                       T
 GLOBAL| Total number of message passing processes                             8
 GLOBAL| Number of distributed systems (nodes)                                 1
 GLOBAL| Number of threads for this process                                    1
 GLOBAL| This output is from process                                           0
 GLOBAL| OpenMP stack size per thread (OMP_STACKSIZE)                    default
 GLOBAL| CPU model name                     13th Gen Intel(R) Core(TM) i7-13700K
 GLOBAL| CPUID                                                              1002

 MEMORY| system memory details [Kb]
 MEMORY|                        rank 0           min           max       average
 MEMORY| MemTotal             65607488      65607488      65607488      65607488
 MEMORY| MemFree              48851280      48851280      48851280      48851280
 MEMORY| Buffers                143308        143308        143308        143308
 MEMORY| Cached               13709968      13709968      13709968      13709968
 MEMORY| Slab                   719436        719436        719436        719436
 MEMORY| SReclaimable           422464        422464        422464        422464
 MEMORY| MemLikelyFree        63127020      63127020      63127020      63127020


 *** Fundamental physical constants (SI units) ***

 *** Literature: B. J. Mohr and B. N. Taylor,
 ***             CODATA recommended values of the fundamental physical
 ***             constants: 2006, Web Version 5.1
 ***             http://physics.nist.gov/constants

 Speed of light in vacuum [m/s]                             2.99792458000000E+08
 Magnetic constant or permeability of vacuum [N/A**2]       1.25663706143592E-06
 Electric constant or permittivity of vacuum [F/m]          8.85418781762039E-12
 Planck constant (h) [J*s]                                  6.62606896000000E-34
 Planck constant (h-bar) [J*s]                              1.05457162825177E-34
 Elementary charge [C]                                      1.60217648700000E-19
 Electron mass [kg]                                         9.10938215000000E-31
 Electron g factor [ ]                                     -2.00231930436220E+00
 Proton mass [kg]                                           1.67262163700000E-27
 Fine-structure constant                                    7.29735253760000E-03
 Rydberg constant [1/m]                                     1.09737315685270E+07
 Avogadro constant [1/mol]                                  6.02214179000000E+23
 Boltzmann constant [J/K]                                   1.38065040000000E-23
 Atomic mass unit [kg]                                      1.66053878200000E-27
 Bohr radius [m]                                            5.29177208590000E-11

 *** Conversion factors ***

 [u] -> [a.u.]                                              1.82288848426455E+03
 [Angstrom] -> [Bohr] = [a.u.]                              1.88972613288564E+00
 [a.u.] = [Bohr] -> [Angstrom]                              5.29177208590000E-01
 [a.u.] -> [s]                                              2.41888432650478E-17
 [a.u.] -> [fs]                                             2.41888432650478E-02
 [a.u.] -> [J]                                              4.35974393937059E-18
 [a.u.] -> [N]                                              8.23872205491840E-08
 [a.u.] -> [K]                                              3.15774647902944E+05
 [a.u.] -> [kJ/mol]                                         2.62549961709828E+03
 [a.u.] -> [kcal/mol]                                       6.27509468713739E+02
 [a.u.] -> [Pa]                                             2.94210107994716E+13
 [a.u.] -> [bar]                                            2.94210107994716E+08
 [a.u.] -> [atm]                                            2.90362800883016E+08
 [a.u.] -> [eV]                                             2.72113838565563E+01
 [a.u.] -> [Hz]                                             6.57968392072181E+15
 [a.u.] -> [1/cm] (wave numbers)                            2.19474631370540E+05
 [a.u./Bohr**2] -> [1/cm]                                   5.14048714338585E+03
 

 CELL_TOP| Volume [angstrom^3]:                                      1000.000000
 CELL_TOP| Vector a [angstrom    10.000     0.000     0.000   |a| =    10.000000
 CELL_TOP| Vector b [angstrom     0.000    10.000     0.000   |b| =    10.000000
 CELL_TOP| Vector c [angstrom     0.000     0.000    10.000   |c| =    10.000000
 CELL_TOP| Angle (b,c), alpha [degree]:                                90.000000
 CELL_TOP| Angle (a,c), beta  [degree]:                                90.000000
 CELL_TOP| Angle (a,b), gamma [degree]:                                90.000000
 CELL_TOP| Numerically orthorhombic:                                         YES
 CELL_TOP| Periodicity                                                      NONE

 GENERATE|  Preliminary Number of Bonds generated:                             0
 GENERATE|  Achieved consistency in connectivity generation.

 CELL| Volume [angstrom^3]:                                          1000.000000
 CELL| Vector a [angstrom]:      10.000     0.000     0.000   |a| =    10.000000
 CELL| Vector b [angstrom]:       0.000    10.000     0.000   |b| =    10.000000
 CELL| Vector c [angstrom]:       0.000     0.000    10.000   |c| =    10.000000
 CELL| Angle (b,c), alpha [degree]:                                    90.000000
 CELL| Angle (a,c), beta  [degree]:                                    90.000000
 CELL| Angle (a,b), gamma [degree]:                                    90.000000
 CELL| Numerically orthorhombic:                                             YES
 CELL| Periodicity                                                          NONE

 CELL_REF| Volume [angstrom^3]:                                      1000.000000
 CELL_REF| Vector a [angstrom    10.000     0.000     0.000   |a| =    10.000000
 CELL_REF| Vector b [angstrom     0.000    10.000     0.000   |b| =    10.000000
 CELL_REF| Vector c [angstrom     0.000     0.000    10.000   |c| =    10.000000
 CELL_REF| Angle (b,c), alpha [degree]:                                90.000000
 CELL_REF| Angle (a,c), beta  [degree]:                                90.000000
 CELL_REF| Angle (a,b), gamma [degree]:                                90.000000
 CELL_REF| Numerically orthorhombic:                                         YES
 CELL_REF| Periodicity                                                      NONE

 *******************************************************************************
 *******************************************************************************
 **                                                                           **
 **     #####                         ##              ##                      **
 **    ##   ##            ##          ##              ##                      **
 **   ##     ##                       ##            ######                    **
 **   ##     ##  ##   ##  ##   #####  ##  ##   ####   ##    #####    #####    **
 **   ##     ##  ##   ##  ##  ##      ## ##   ##      ##   ##   ##  ##   ##   **
 **   ##  ## ##  ##   ##  ##  ##      ####     ###    ##   ######   ######    **
 **    ##  ###   ##   ##  ##  ##      ## ##      ##   ##   ##       ##        **
 **     #######   #####   ##   #####  ##  ##  ####    ##    #####   ##        **
 **           ##                                                    ##        **
 **                                                                           **
 **                                                ... make the atoms dance   **
 **                                                                           **
 **            Copyright (C) by CP2K developers group (2000-2026)             **
 **                      J. Chem. Phys. 152, 194103 (2020)                    **
 **                                                                           **
 *******************************************************************************

 DFT| Spin restricted Kohn-Sham (RKS) calculation                            RKS
 DFT| Multiplicity                                                             1
 DFT| Number of spin states                                                    1
 DFT| Charge                                                                   0
 DFT| Self-interaction correction (SIC)                                       NO
 DFT| Cutoffs: density                                              1.000000E-10
 DFT|          gradient                                             1.000000E-10
 DFT|          tau                                                  1.000000E-10
 DFT|          cutoff_smoothing_range                               0.000000E+00
 DFT| XC density smoothing                                                  NONE
 DFT| XC derivatives                                                          PW

 FUNCTIONAL| PADE:
 FUNCTIONAL| S. Goedecker, M. Teter and J. Hutter, Phys. Rev. B 54, 1703 (1996) 


 QS| Method:                                                                 GPW
 QS| Density plane wave grid type                        NON-SPHERICAL FULLSPACE
 QS| Number of grid levels:                                                    4
 QS| Density cutoff [a.u.]:                                                 25.0
 QS| Multi grid cutoff [a.u.]: 1) grid level                                25.0
 QS|                           2) grid level                                 8.3
 QS|                           3) grid level                                 2.8
 QS|                           4) grid level                                 0.9
 QS| Grid level progression factor:                                          3.0
 QS| Relative density cutoff [a.u.]:                                        20.0
 QS| Interaction thresholds: eps_pgf_orb:                                1.0E-05
 QS|                         eps_filter_matrix:                          0.0E+00
 QS|                         eps_core_charge:                            1.0E-12
 QS|                         eps_rho_gspace:                             1.0E-10
 QS|                         eps_rho_rspace:                             1.0E-10
 QS|                         eps_gvg_rspace:                             1.0E-05
 QS|                         eps_ppl:                                    1.0E-02
 QS|                         eps_ppnl:                                   1.0E-07


 ATOMIC KIND INFORMATION

  1. Atomic kind: N                                     Number of atoms:       1

     Orbital Basis Set                                                  DZVP-GTH

       Number of orbital shell sets:                                           2
       Number of orbital shells:                                               5
       Number of primitive Cartesian functions:                                5
       Number of Cartesian basis functions:                                   14
       Number of spherical basis functions:                                   13
       Norm type:                                                              2

       Normalised Cartesian orbitals:

                        Set   Shell   Orbital            Exponent    Coefficient

                          1       1    2s                6.152690       0.419392
                                                         1.823633      -0.040275
                                                         0.567663      -0.323567
                                                         0.162822      -0.070861

                          1       2    3s                6.152690       0.000000
                                                         1.823633       0.000000
                                                         0.567663       0.000000
                                                         0.162822       0.182682

                          1       3    3px               6.152690      -1.313018
                                                         1.823633      -0.881710
                                                         0.567663      -0.332847
                                                         0.162822      -0.057400
                          1       3    3py               6.152690      -1.313018
                                                         1.823633      -0.881710
                                                         0.567663      -0.332847
                                                         0.162822      -0.057400
                          1       3    3pz               6.152690      -1.313018
                                                         1.823633      -0.881710
                                                         0.567663      -0.332847
                                                         0.162822      -0.057400

                          1       4    4px               6.152690       0.000000
                                                         1.823633       0.000000
                                                         0.567663       0.000000
                                                         0.162822       0.147429
                          1       4    4py               6.152690       0.000000
                                                         1.823633       0.000000
                                                         0.567663       0.000000
                                                         0.162822       0.147429
                          1       4    4pz               6.152690       0.000000
                                                         1.823633       0.000000
                                                         0.567663       0.000000
                                                         0.162822       0.147429

                          2       1    3dx2              0.817000       1.155575
                          2       1    3dxy              0.817000       2.001514
                          2       1    3dxz              0.817000       2.001514
                          2       1    3dy2              0.817000       1.155575
                          2       1    3dyz              0.817000       2.001514
                          2       1    3dz2              0.817000       1.155575

       Atomic covalent radius [Angstrom]:                                  0.750

       Atomic van der Waals radius [Angstrom]:                             1.550

     GTH Potential information for                                   GTH-PADE-q5

       Description:                       Goedecker-Teter-Hutter pseudopotential
                                           Goedecker et al., PRB 54, 1703 (1996)
                                          Hartwigsen et al., PRB 58, 3641 (1998)
                                                      Krack, TCA 114, 145 (2005)

       Gaussian exponent of the core charge distribution:               5.979100
       Electronic configuration (s p d ...):                               2   3

       Parameters of the local part of the GTH pseudopotential:

                          rloc        C1          C2          C3          C4
                        0.289179  -12.234820    1.766407

       Parameters of the non-local part of the GTH pseudopotential:

                   l      r(l)      h(i,j,l)

                   0    0.256605   13.552243
                   1    0.270134

  2. Atomic kind: C                                     Number of atoms:       1

     Orbital Basis Set                                                  DZVP-GTH

       Number of orbital shell sets:                                           2
       Number of orbital shells:                                               5
       Number of primitive Cartesian functions:                                5
       Number of Cartesian basis functions:                                   14
       Number of spherical basis functions:                                   13
       Norm type:                                                              2

       Normalised Cartesian orbitals:

                        Set   Shell   Orbital            Exponent    Coefficient

                          1       1    2s                4.336238       0.319274
                                                         1.288184      -0.025219
                                                         0.403777      -0.248447
                                                         0.118788      -0.057170

                          1       2    3s                4.336238       0.000000
                                                         1.288184       0.000000
                                                         0.403777       0.000000
                                                         0.118788       0.144208

                          1       3    3px               4.336238      -0.783226
                                                         1.288184      -0.542954
                                                         0.403777      -0.216197
                                                         0.118788      -0.040339
                          1       3    3py               4.336238      -0.783226
                                                         1.288184      -0.542954
                                                         0.403777      -0.216197
                                                         0.118788      -0.040339
                          1       3    3pz               4.336238      -0.783226
                                                         1.288184      -0.542954
                                                         0.403777      -0.216197
                                                         0.118788      -0.040339

                          1       4    4px               4.336238       0.000000
                                                         1.288184       0.000000
                                                         0.403777       0.000000
                                                         0.118788       0.099404
                          1       4    4py               4.336238       0.000000
                                                         1.288184       0.000000
                                                         0.403777       0.000000
                                                         0.118788       0.099404
                          1       4    4pz               4.336238       0.000000
                                                         1.288184       0.000000
                                                         0.403777       0.000000
                                                         0.118788       0.099404

                          2       1    3dx2              0.550000       0.578155
                          2       1    3dxy              0.550000       1.001394
                          2       1    3dxz              0.550000       1.001394
                          2       1    3dy2              0.550000       0.578155
                          2       1    3dyz              0.550000       1.001394
                          2       1    3dz2              0.550000       0.578155

       Atomic covalent radius [Angstrom]:                                  0.770

       Atomic van der Waals radius [Angstrom]:                             1.700

     GTH Potential information for                                   GTH-PADE-q4

       Description:                       Goedecker-Teter-Hutter pseudopotential
                                           Goedecker et al., PRB 54, 1703 (1996)
                                          Hartwigsen et al., PRB 58, 3641 (1998)
                                                      Krack, TCA 114, 145 (2005)

       Gaussian exponent of the core charge distribution:               4.109048
       Electronic configuration (s p d ...):                               2   2

       Parameters of the local part of the GTH pseudopotential:

                          rloc        C1          C2          C3          C4
                        0.348830   -8.513771    1.228432

       Parameters of the non-local part of the GTH pseudopotential:

                   l      r(l)      h(i,j,l)

                   0    0.304553    9.522842
                   1    0.232677

  3. Atomic kind: H                                     Number of atoms:       1

     Orbital Basis Set                                                  DZVP-GTH

       Number of orbital shell sets:                                           2
       Number of orbital shells:                                               3
       Number of primitive Cartesian functions:                                5
       Number of Cartesian basis functions:                                    5
       Number of spherical basis functions:                                    5
       Norm type:                                                              2

       Normalised Cartesian orbitals:

                        Set   Shell   Orbital            Exponent    Coefficient

                          1       1    1s                8.374435      -0.099425
                                                         1.805868      -0.148088
                                                         0.485253      -0.165568
                                                         0.165824      -0.102436

                          1       2    2s                8.374435       0.000000
                                                         1.805868       0.000000
                                                         0.485253       0.000000
                                                         0.165824       0.185202

                          2       1    2px               0.727000       0.956881
                          2       1    2py               0.727000       0.956881
                          2       1    2pz               0.727000       0.956881

       Atomic covalent radius [Angstrom]:                                  0.320

       Atomic van der Waals radius [Angstrom]:                             1.090

     GTH Potential information for                                   GTH-PADE-q1

       Description:                       Goedecker-Teter-Hutter pseudopotential
                                           Goedecker et al., PRB 54, 1703 (1996)
                                          Hartwigsen et al., PRB 58, 3641 (1998)
                                                      Krack, TCA 114, 145 (2005)

       Gaussian exponent of the core charge distribution:              12.500000
       Electronic configuration (s p d ...):                                   1

       Parameters of the local part of the GTH pseudopotential:

                          rloc        C1          C2          C3          C4
                        0.200000   -4.180237    0.725075


 MOLECULE KIND INFORMATION


 All atoms are their own molecule, skipping detailed information


 TOTAL NUMBERS AND MAXIMUM NUMBERS

  Total number of            - Atomic kinds:                                   3
                             - Atoms:                                          3
                             - Shell sets:                                     6
                             - Shells:                                        13
                             - Primitive Cartesian functions:                 15
                             - Cartesian basis functions:                     33
                             - Spherical basis functions:                     31

  Maximum angular momentum of- Orbital basis functions:                        2
                             - Local part of the GTH pseudopotential:          2
                             - Non-local part of the GTH pseudopotential:      0


 MODULE QUICKSTEP: ATOMIC COORDINATES IN ANGSTROM

   Atom Kind Element         X             Y             Z       Z(eff)     Mass
      1    1 N     7     -0.000500      0.000300      0.000000   5.0000  14.0067
      2    2 C     6      1.220000     -0.000300      0.000000   4.0000  12.0107
      3    3 H     1      0.865400      1.147800      0.000000   1.0000   1.0079



 SCF PARAMETERS         Density guess:                                    ATOMIC
                        --------------------------------------------------------
                        max_scf:                                             200
                        max_scf_history:                                       0
                        max_diis:                                              4
                        --------------------------------------------------------
                        eps_scf:                                        1.00E-06
                        eps_scf_history:                                0.00E+00
                        eps_diis:                                       0.00E+00
                        eps_eigval:                                     1.00E-05
                        --------------------------------------------------------
                        level_shift [a.u.]:                             0.000000
                        --------------------------------------------------------
                        Outer loop SCF in use 
                        No variables optimised in outer loop
                        eps_scf                                         1.00E-06
                        max_scf                                                1
                        No outer loop optimization
                        step_size                                       5.00E-01

 PW_GRID| Information for grid number                                          1
 PW_GRID| Grid distributed over                                     8 processors
 PW_GRID| Real space group dimensions                                     8    1
 PW_GRID| the grid is blocked:                                                NO
 PW_GRID| Cutoff [a.u.]                                                     50.0
 PW_GRID| spherical cutoff:                                                   NO
 PW_GRID|   Bounds   1            -32      31                Points:          64
 PW_GRID|   Bounds   2            -32      31                Points:          64
 PW_GRID|   Bounds   3            -32      31                Points:          64
 PW_GRID| Volume element (a.u.^3)  0.2574E-01     Volume (a.u.^3)      6748.3346
 PW_GRID| Grid span                                                    FULLSPACE
 PW_GRID|   Distribution                         Average         Max         Min
 PW_GRID|   G-Vectors                            32768.0       32768       32768
 PW_GRID|   G-Rays                                 512.0         512         512
 PW_GRID|   Real Space Points                    32768.0       32768       32768

 PW_GRID| Information for grid number                                          2
 PW_GRID| Number of the reference grid                                         1
 PW_GRID| Grid distributed over                                     8 processors
 PW_GRID| Real space group dimensions                                     8    1
 PW_GRID| the grid is blocked:                                                NO
 PW_GRID| Cutoff [a.u.]                                                     25.0
 PW_GRID| spherical cutoff:                                                   NO
 PW_GRID|   Bounds   1            -22      22                Points:          45
 PW_GRID|   Bounds   2            -22      22                Points:          45
 PW_GRID|   Bounds   3            -22      22                Points:          45
 PW_GRID| Volume element (a.u.^3)  0.7406E-01     Volume (a.u.^3)      6748.3346
 PW_GRID| Grid span                                                    FULLSPACE
 PW_GRID|   Distribution                         Average         Max         Min
 PW_GRID|   G-Vectors                            11390.6       11475       11340
 PW_GRID|   G-Rays                                 253.1         255         252
 PW_GRID|   Real Space Points                    11390.6       12150       10125

 PW_GRID| Information for grid number                                          3
 PW_GRID| Number of the reference grid                                         2
 PW_GRID| Grid distributed over                                     8 processors
 PW_GRID| Real space group dimensions                                     8    1
 PW_GRID| the grid is blocked:                                                NO
 PW_GRID| Cutoff [a.u.]                                                      8.3
 PW_GRID| spherical cutoff:                                                   NO
 PW_GRID|   Bounds   1            -12      12                Points:          25
 PW_GRID|   Bounds   2            -12      12                Points:          25
 PW_GRID|   Bounds   3            -12      12                Points:          25
 PW_GRID| Volume element (a.u.^3)  0.4319         Volume (a.u.^3)      6748.3346
 PW_GRID| Grid span                                                    FULLSPACE
 PW_GRID|   Distribution                         Average         Max         Min
 PW_GRID|   G-Vectors                             1953.1        2025        1900
 PW_GRID|   G-Rays                                  78.1          81          76
 PW_GRID|   Real Space Points                     1953.1        2500        1875

 PW_GRID| Information for grid number                                          4
 PW_GRID| Number of the reference grid                                         2
 PW_GRID| Grid distributed over                                     8 processors
 PW_GRID| Real space group dimensions                                     8    1
 PW_GRID| the grid is blocked:                                                NO
 PW_GRID| Cutoff [a.u.]                                                      2.8
 PW_GRID| spherical cutoff:                                                   NO
 PW_GRID|   Bounds   1             -7       7                Points:          15
 PW_GRID|   Bounds   2             -7       7                Points:          15
 PW_GRID|   Bounds   3             -7       7                Points:          15
 PW_GRID| Volume element (a.u.^3)   2.000         Volume (a.u.^3)      6748.3346
 PW_GRID| Grid span                                                    FULLSPACE
 PW_GRID|   Distribution                         Average         Max         Min
 PW_GRID|   G-Vectors                              421.9         435         405
 PW_GRID|   G-Rays                                  28.1          29          27
 PW_GRID|   Real Space Points                      421.9         450         225

 PW_GRID| Information for grid number                                          5
 PW_GRID| Number of the reference grid                                         2
 PW_GRID| Grid distributed over                                     8 processors
 PW_GRID| Real space group dimensions                                     8    1
 PW_GRID| the grid is blocked:                                                NO
 PW_GRID| Cutoff [a.u.]                                                      0.9
 PW_GRID| spherical cutoff:                                                   NO
 PW_GRID|   Bounds   1             -4       4                Points:           9
 PW_GRID|   Bounds   2             -4       4                Points:           9
 PW_GRID|   Bounds   3             -4       4                Points:           9
 PW_GRID| Volume element (a.u.^3)   9.257         Volume (a.u.^3)      6748.3346
 PW_GRID| Grid span                                                    FULLSPACE
 PW_GRID|   Distribution                         Average         Max         Min
 PW_GRID|   G-Vectors                               91.1         117          72
 PW_GRID|   G-Rays                                  10.1          13           8
 PW_GRID|   Real Space Points                       91.1         162          81

 POISSON| Solver                                          Martyna-Tuckerman (MT)
 POISSON| MT| Alpha                                                        7.000
 POISSON| MT| Relative cutoff                                                2.0
 POISSON| Periodicity                                                       NONE

 RS_GRID| Information for grid number                                          2
 RS_GRID|   Bounds   1            -22      22                Points:          45
 RS_GRID|   Bounds   2            -22      22                Points:          45
 RS_GRID|   Bounds   3            -22      22                Points:          45
 RS_GRID| Real space fully replicated
 RS_GRID| Group size                                                           1

 RS_GRID| Information for grid number                                          3
 RS_GRID|   Bounds   1            -12      12                Points:          25
 RS_GRID|   Bounds   2            -12      12                Points:          25
 RS_GRID|   Bounds   3            -12      12                Points:          25
 RS_GRID| Real space fully replicated
 RS_GRID| Group size                                                           1

 RS_GRID| Information for grid number                                          4
 RS_GRID|   Bounds   1             -7       7                Points:          15
 RS_GRID|   Bounds   2             -7       7                Points:          15
 RS_GRID|   Bounds   3             -7       7                Points:          15
 RS_GRID| Real space fully replicated
 RS_GRID| Group size                                                           1

 RS_GRID| Information for grid number                                          5
 RS_GRID|   Bounds   1             -4       4                Points:           9
 RS_GRID|   Bounds   2             -4       4                Points:           9
 RS_GRID|   Bounds   3             -4       4                Points:           9
 RS_GRID| Real space fully replicated
 RS_GRID| Group size                                                           1

 *******************************************************************************
 ***                     STARTING GEOMETRY OPTIMIZATION                      ***
 ***                           CONJUGATE GRADIENTS                           ***
 *******************************************************************************

 Extrapolation method: initial_guess

 Atomic guess: The first density matrix is obtained in terms of atomic orbitals
               and electronic configurations assigned to each atomic kind

 Guess for atomic kind: N

 Electronic structure
    Total number of core electrons                                          2.00
    Total number of valence electrons                                       5.00
    Total number of electrons                                               7.00
    Multiplicity                                                   not specified
    S   [  2.00] 2.00
    P      3.00


 *******************************************************************************
                  Iteration          Convergence                     Energy [au]
 *******************************************************************************
                          1        0.289140                      -9.552312105299
                          2        0.224558                      -9.561538421122
                          3        0.128984E-02                  -9.578809144942
                          4        0.765669E-04                  -9.578809671523
                          5        0.428649E-04                  -9.578809672800
                          6        0.300703E-04                  -9.578809673096
                          7        0.177050E-07                  -9.578809673383

 Energy components [Hartree]           Total Energy ::           -9.578809673383
                                        Band Energy ::           -2.051196716227
                                     Kinetic Energy ::            6.861460719743
                                   Potential Energy ::          -16.440270393126
                                      Virial (-V/T) ::            2.396030679855
                                        Core Energy ::          -15.605133895147
                                          XC Energy ::           -2.172800779662
                                     Coulomb Energy ::            8.199125001427
                       Total Pseudopotential Energy ::          -22.503297336919
                       Local Pseudopotential Energy ::          -23.456113773358
                    Nonlocal Pseudopotential Energy ::            0.952816436438
                                        Confinement ::            0.367027220286

 Orbital energies  State     L     Occupation   Energy[a.u.]          Energy[eV]

                       1     0          2.000      -0.657470          -17.890656

                       1     1          3.000      -0.245419           -6.678197


 Total Electron Density at R=0:                                         0.000414

 Guess for atomic kind: C

 Electronic structure
    Total number of core electrons                                          2.00
    Total number of valence electrons                                       4.00
    Total number of electrons                                               6.00
    Multiplicity                                                   not specified
    S   [  2.00] 2.00
    P      2.00


 *******************************************************************************
                  Iteration          Convergence                     Energy [au]
 *******************************************************************************
                          1        0.956929E-01                  -5.296851706599
                          2        0.608272E-01                  -5.301244917031
                          3        0.187637E-03                  -5.304303130555
                          4        0.907823E-07                  -5.304303159084

 Energy components [Hartree]           Total Energy ::           -5.304303159084
                                        Band Energy ::           -1.320195178278
                                     Kinetic Energy ::            3.454843576586
                                   Potential Energy ::           -8.759146735670
                                      Virial (-V/T) ::            2.535323681521
                                        Core Energy ::           -8.329528102592
                                          XC Energy ::           -1.382804856816
                                     Coulomb Energy ::            4.408029800324
                       Total Pseudopotential Energy ::          -11.818293312936
                       Local Pseudopotential Energy ::          -12.470239196904
                    Nonlocal Pseudopotential Energy ::            0.651945883968
                                        Confinement ::            0.339216337578

 Orbital energies  State     L     Occupation   Energy[a.u.]          Energy[eV]

                       1     0          2.000      -0.481984          -13.115443

                       1     1          2.000      -0.178114           -4.846726


 Total Electron Density at R=0:                                         0.000209

 Guess for atomic kind: H

 Electronic structure
    Total number of core electrons                                          0.00
    Total number of valence electrons                                       1.00
    Total number of electrons                                               1.00
    Multiplicity                                                   not specified
    S      1.00


 *******************************************************************************
                  Iteration          Convergence                     Energy [au]
 *******************************************************************************
                          1        0.147171E-02                  -0.421723711027
                          2        0.157122E-03                  -0.421725945021
                          3        0.196312E-07                  -0.421725970773

 Energy components [Hartree]           Total Energy ::           -0.421725970773
                                        Band Energy ::           -0.187780976674
                                     Kinetic Energy ::            0.476586039475
                                   Potential Energy ::           -0.898312010248
                                      Virial (-V/T) ::            1.884889476070
                                        Core Energy ::           -0.480158516611
                                          XC Energy ::           -0.252039314035
                                     Coulomb Energy ::            0.310471859872
                       Total Pseudopotential Energy ::           -0.973399080031
                       Local Pseudopotential Energy ::           -0.973399080031
                    Nonlocal Pseudopotential Energy ::            0.000000000000
                                        Confinement ::            0.166545239452

 Orbital energies  State     L     Occupation   Energy[a.u.]          Energy[eV]

                       1     0          1.000      -0.187781           -5.109780


 Total Electron Density at R=0:                                         0.222989
 Re-scaling the density matrix to get the right number of electrons
                  # Electrons              Trace(P)               Scaling factor
                           10                10.000                        1.000

 Number of electrons:                                                         10
 Number of occupied orbitals:                                                  5
 Number of molecular orbitals:                                                 5

 Number of orbital functions:                                                 31
 Number of independent orbital functions:                                     31


 SCF WAVEFUNCTION OPTIMIZATION

  ----------------------------------- OT ---------------------------------------
  Minimizer      : DIIS                : direct inversion
                                         in the iterative subspace
                                         using   7 DIIS vectors
                                         safer DIIS on
  Preconditioner : FULL_SINGLE_INVERSE : inversion of 
                                         H + eS - 2*(Sc)(c^T*H*c+const)(Sc)^T
  Precond_solver : DEFAULT
  stepsize       :    0.08000000                  energy_gap     :    0.08000000
  eps_taylor     :   0.10000E-15                  max_taylor     :             4
  ----------------------------------- OT ---------------------------------------

  Step     Update method      Time    Convergence         Total energy    Change
  ------------------------------------------------------------------------------
     1 OT DIIS     0.80E-01    0.0     0.28715699       -14.0245938866 -1.40E+01
     2 OT DIIS     0.80E-01    0.0     0.31501867       -14.4451688589 -4.21E-01
     3 OT DIIS     0.80E-01    0.0     0.17298781       -14.8271455939 -3.82E-01
     4 OT DIIS     0.80E-01    0.0     0.13585350       -15.0850291367 -2.58E-01
     5 OT SD       0.80E-01    0.0     0.17107948       -15.1758626080 -9.08E-02
     6 OT DIIS     0.80E-01    0.0     0.11945263       -15.3180123357 -1.42E-01
     7 OT DIIS     0.80E-01    0.0     0.14234016       -15.2641252390  5.39E-02
     8 OT DIIS     0.80E-01    0.0     0.05199040       -15.4053676429 -1.41E-01
     9 OT DIIS     0.80E-01    0.0     0.04733052       -15.4248027850 -1.94E-02
    10 OT DIIS     0.80E-01    0.0     0.02782638       -15.4326469822 -7.84E-03
    11 OT DIIS     0.80E-01    0.0     0.01868933       -15.4355502181 -2.90E-03
    12 OT DIIS     0.80E-01    0.0     0.01217617       -15.4358362360 -2.86E-04
    13 OT DIIS     0.80E-01    0.0     0.00342493       -15.4372679682 -1.43E-03
    14 OT DIIS     0.80E-01    0.0     0.00211605       -15.4375340788 -2.66E-04
    15 OT DIIS     0.80E-01    0.0     0.00116721       -15.4376199247 -8.58E-05
    16 OT DIIS     0.80E-01    0.0     0.00064923       -15.4376602578 -4.03E-05
    17 OT DIIS     0.80E-01    0.0     0.00043578       -15.4376708266 -1.06E-05
    18 OT DIIS     0.80E-01    0.0     0.00025769       -15.4376761118 -5.29E-06
    19 OT DIIS     0.80E-01    0.0     0.00014315       -15.4376778518 -1.74E-06
    20 OT DIIS     0.80E-01    0.0     0.00007657       -15.4376784275 -5.76E-07
 Writing RESTART 1_0_20 to HCN-TS-RESTART.wfn
    21 OT DIIS     0.80E-01    0.0     0.00004398       -15.4376785159 -8.83E-08
    22 OT DIIS     0.80E-01    0.0     0.00003049       -15.4376785542 -3.83E-08
    23 OT DIIS     0.80E-01    0.0     0.00001466       -15.4376785792 -2.49E-08
    24 OT DIIS     0.80E-01    0.0     0.00001100       -15.4376785830 -3.82E-09
    25 OT DIIS     0.80E-01    0.0     0.00000689       -15.4376785848 -1.84E-09
    26 OT DIIS     0.80E-01    0.0     0.00000459       -15.4376785858 -1.00E-09
    27 OT DIIS     0.80E-01    0.0     0.00000338       -15.4376785862 -4.15E-10
    28 OT DIIS     0.80E-01    0.0     0.00000225       -15.4376785865 -2.48E-10
    29 OT DIIS     0.80E-01    0.0     0.00000150       -15.4376785866 -1.34E-10
    30 OT DIIS     0.80E-01    0.0     0.00000101       -15.4376785867 -4.64E-11
    31 OT DIIS     0.80E-01    0.0     0.00000060       -15.4376785867 -2.79E-11

  *** SCF run converged in    31 steps ***


  Electronic density on regular grids:         -9.9973005908        0.0026994092
  Core density on regular grids:               10.0556554265        0.0556554265
  Total charge density on r-space grids:        0.0583548358
  Total charge density g-space grids:           0.0583548358

  Overlap energy of the core charge distribution:               0.00000313046519
  Self energy of the core charge distribution:                -38.73701161091151
  Core Hamiltonian energy:                                     11.21601667509292
  Hartree energy:                                              16.39235817058128
  Exchange-correlation energy:                                 -4.30904495191146

  Total energy:                                               -15.43767858668359
 Moving file HCN-TS-RESTART.wfn into file HCN-TS-RESTART.wfn.bak-1.
 Writing RESTART 1_0_31 to HCN-TS-RESTART.wfn

  outer SCF iter =    1 RMS gradient =   0.60E-06 energy =        -15.4376785867
  outer SCF loop converged in   1 iterations or   31 steps


 !-----------------------------------------------------------------------------!
                     Mulliken Population Analysis

 #  Atom  Element  Kind  Atomic population                           Net charge
       1     N        1          4.788492                              0.211508
       2     C        2          4.385703                             -0.385703
       3     H        3          0.825805                              0.174195
 # Total charge                             10.000000                 -0.000000

 !-----------------------------------------------------------------------------!

 !-----------------------------------------------------------------------------!
                           Hirshfeld Charges

  #Atom  Element  Kind  Ref Charge     Population                    Net charge
      1       N      1       5.000          5.253                        -0.253
      2       C      2       4.000          4.254                        -0.254
      3       H      3       1.000          0.482                         0.518

  Total Charge                                                            0.010
 !-----------------------------------------------------------------------------!

 ENERGY| Total FORCE_EVAL ( QS ) energy [hartree]            -15.437678586691272

 *******************************************************************************
 ***                        OPTIMIZING DIMER ROTATION                        ***
 ***                           CONJUGATE GRADIENTS                           ***
 *******************************************************************************

 Parameters for the always stable predictor-corrector (ASPC) method:

  ASPC order: 0

  B(1) =   1.000000

 Extrapolation method: ASPC

 Number of electrons:                                                         10
 Number of occupied orbitals:                                                  5
 Number of molecular orbitals:                                                 5

 Number of orbital functions:                                                 31
 Number of independent orbital functions:                                     31


 SCF WAVEFUNCTION OPTIMIZATION

  ----------------------------------- OT ---------------------------------------
  Minimizer      : DIIS                : direct inversion
                                         in the iterative subspace
                                         using   7 DIIS vectors
                                         safer DIIS on
  Preconditioner : FULL_SINGLE_INVERSE : inversion of 
                                         H + eS - 2*(Sc)(c^T*H*c+const)(Sc)^T
  Precond_solver : DEFAULT
  stepsize       :    0.08000000                  energy_gap     :    0.08000000
  eps_taylor     :   0.10000E-15                  max_taylor     :             4
  ----------------------------------- OT ---------------------------------------

  Step     Update method      Time    Convergence         Total energy    Change
  ------------------------------------------------------------------------------
     1 OT DIIS     0.80E-01    0.0     0.00002959       -15.4376610548 -1.54E+01
     2 OT DIIS     0.80E-01    0.0     0.00001794       -15.4376610634 -8.59E-09
     3 OT DIIS     0.80E-01    0.0     0.00000569       -15.4376610685 -5.09E-09
     4 OT DIIS     0.80E-01    0.0     0.00000235       -15.4376610689 -4.55E-10
     5 OT DIIS     0.80E-01    0.0     0.00000089       -15.4376610690 -7.62E-11

  *** SCF run converged in     5 steps ***


  Electronic density on regular grids:         -9.9972993831        0.0027006169
  Core density on regular grids:               10.0556559230        0.0556559230
  Total charge density on r-space grids:        0.0583565399
  Total charge density g-space grids:           0.0583565399

  Overlap energy of the core charge distribution:               0.00000313413998
  Self energy of the core charge distribution:                -38.73701161091151
  Core Hamiltonian energy:                                     11.21612642982268
  Hartree energy:                                              16.39229735958330
  Exchange-correlation energy:                                 -4.30907638165716

  Total energy:                                               -15.43766106902271
 Writing RESTART 1_0_0_5 to HCN-TS-RESTART-1.wfn

  outer SCF iter =    1 RMS gradient =   0.89E-06 energy =        -15.4376610690
  outer SCF loop converged in   1 iterations or    5 steps


 !-----------------------------------------------------------------------------!
                     Mulliken Population Analysis

 #  Atom  Element  Kind  Atomic population                           Net charge
       1     N        1          4.788472                              0.211528
       2     C        2          4.385728                             -0.385728
       3     H        3          0.825800                              0.174200
 # Total charge                             10.000000                  0.000000

 !-----------------------------------------------------------------------------!

 !-----------------------------------------------------------------------------!
                           Hirshfeld Charges

  #Atom  Element  Kind  Ref Charge     Population                    Net charge
      1       N      1       5.000          5.253                        -0.253
      2       C      2       4.000          4.254                        -0.254
      3       H      3       1.000          0.482                         0.518

  Total Charge                                                            0.010
 !-----------------------------------------------------------------------------!

 ENERGY| Total FORCE_EVAL ( QS ) energy [hartree]            -15.437661069034309

 OPT| **************************************************************************
 OPT| Rotational step number                                                   0
 OPT| Optimization method                                                     SD
 OPT| Local curvature                                             -24.6045355668
 OPT| Total rotational force                                        0.0026520734
 OPT| Used time [s]                                                        0.040
 OPT| **************************************************************************
 OPT| Estimated peak process memory [MiB]                                    252

 --------------------------
 OPTIMIZATION STEP:      1
 --------------------------

 Parameters for the always stable predictor-corrector (ASPC) method:

  ASPC order: 0

  B(1) =   2.000000
  B(2) =  -1.000000

 Extrapolation method: ASPC

 Number of electrons:                                                         10
 Number of occupied orbitals:                                                  5
 Number of molecular orbitals:                                                 5

 Number of orbital functions:                                                 31
 Number of independent orbital functions:                                     31


 SCF WAVEFUNCTION OPTIMIZATION

  ----------------------------------- OT ---------------------------------------
  Minimizer      : DIIS                : direct inversion
                                         in the iterative subspace
                                         using   7 DIIS vectors
                                         safer DIIS on
  Preconditioner : FULL_SINGLE_INVERSE : inversion of 
                                         H + eS - 2*(Sc)(c^T*H*c+const)(Sc)^T
  Precond_solver : DEFAULT
  stepsize       :    0.08000000                  energy_gap     :    0.08000000
  eps_taylor     :   0.10000E-15                  max_taylor     :             4
  ----------------------------------- OT ---------------------------------------

  Step     Update method      Time    Convergence         Total energy    Change
  ------------------------------------------------------------------------------
     1 OT DIIS     0.80E-01    0.0     0.00002841       -15.4376729075 -1.54E+01
     2 OT DIIS     0.80E-01    0.0     0.00001722       -15.4376729154 -7.91E-09
     3 OT DIIS     0.80E-01    0.0     0.00000541       -15.4376729201 -4.67E-09
     4 OT DIIS     0.80E-01    0.0     0.00000217       -15.4376729205 -4.23E-10
     5 OT DIIS     0.80E-01    0.0     0.00000086       -15.4376729206 -6.44E-11

  *** SCF run converged in     5 steps ***


  Electronic density on regular grids:         -9.9972992745        0.0027007255
  Core density on regular grids:               10.0556540406        0.0556540406
  Total charge density on r-space grids:        0.0583547661
  Total charge density g-space grids:           0.0583547661

  Overlap energy of the core charge distribution:               0.00000313494503
  Self energy of the core charge distribution:                -38.73701161091151
  Core Hamiltonian energy:                                     11.21616625455599
  Hartree energy:                                              16.39225597097207
  Exchange-correlation energy:                                 -4.30908667014850

  Total energy:                                               -15.43767292058692
 Moving file HCN-TS-RESTART-1.wfn into file HCN-TS-RESTART-1.wfn.bak-1.
 Writing RESTART 1_0_1_5 to HCN-TS-RESTART-1.wfn

  outer SCF iter =    1 RMS gradient =   0.86E-06 energy =        -15.4376729206
  outer SCF loop converged in   1 iterations or    5 steps


 !-----------------------------------------------------------------------------!
                     Mulliken Population Analysis

 #  Atom  Element  Kind  Atomic population                           Net charge
       1     N        1          4.788468                              0.211532
       2     C        2          4.385734                             -0.385734
       3     H        3          0.825798                              0.174202
 # Total charge                             10.000000                  0.000000

 !-----------------------------------------------------------------------------!

 !-----------------------------------------------------------------------------!
                           Hirshfeld Charges

  #Atom  Element  Kind  Ref Charge     Population                    Net charge
      1       N      1       5.000          5.253                        -0.253
      2       C      2       4.000          4.254                        -0.254
      3       H      3       1.000          0.482                         0.518

  Total Charge                                                            0.010
 !-----------------------------------------------------------------------------!

 ENERGY| Total FORCE_EVAL ( QS ) energy [hartree]            -15.437672920597485

 OPT| **************************************************************************
 OPT| Rotational step number                                                   1
 OPT| Optimization method                                                     SD
 OPT| Local curvature                                             -27.0364828175
 OPT| Total rotational force                                        0.0013696390
 OPT| Rotational force change                                      -0.0012824344
 OPT| Decrease in rotational force                                           YES
 OPT| Used time [s]                                                        0.042
 OPT|
 OPT| Predicted angle step size                                     0.1389096257
 OPT| Effective angle step size                                     0.3336205182
 OPT| Convergence limit for angle step size                         0.0017453293
 OPT| Angle step size is converged                                            NO
 OPT| **************************************************************************

 *** MAXIMUM NUMBER OF OPTIMIZATION STEPS REACHED ***
 ***        EXITING ROTATION OPTIMIZATION         ***
 DIMER| Correcting gradients for Translation with standard method

 ROT| Rotational analysis information
 ROT| Principal axes and moments of inertia [a.u.]
 ROT|                           1                   2                   3
 ROT| Eigenvalues      2.26038750835E+00   3.69142824966E+00   5.95181575801E+00
 ROT|      x             -0.622744891599     -0.782424948469      0.000000000000
 ROT|      y             -0.782424948469      0.622744891599      0.000000000000
 ROT|      z             -0.000000000000      0.000000000000      1.000000000000
 ROT| Number of rotovibrational vectors                                        6

 OPT| **************************************************************************
 OPT| Step number                                                              0
 OPT| Optimization method                                                     SD
 OPT| Total energy [hartree]                                        1.5924935985
 OPT| Used time [s]                                                        0.356
 OPT| **************************************************************************
 OPT| Estimated peak process memory [MiB]                                    253

 --------------------------
 OPTIMIZATION STEP:      1
 --------------------------

 Parameters for the always stable predictor-corrector (ASPC) method:

  ASPC order: 1

  B(1) =   2.500000
  B(2) =  -2.000000
  B(3) =   0.500000

 Extrapolation method: ASPC

 Number of electrons:                                                         10
 Number of occupied orbitals:                                                  5
 Number of molecular orbitals:                                                 5

 Number of orbital functions:                                                 31
 Number of independent orbital functions:                                     31


 SCF WAVEFUNCTION OPTIMIZATION

  ----------------------------------- OT ---------------------------------------
  Minimizer      : DIIS                : direct inversion
                                         in the iterative subspace
                                         using   7 DIIS vectors
                                         safer DIIS on
  Preconditioner : FULL_SINGLE_INVERSE : inversion of 
                                         H + eS - 2*(Sc)(c^T*H*c+const)(Sc)^T
  Precond_solver : DEFAULT
  stepsize       :    0.08000000                  energy_gap     :    0.08000000
  eps_taylor     :   0.10000E-15                  max_taylor     :             4
  ----------------------------------- OT ---------------------------------------

  Step     Update method      Time    Convergence         Total energy    Change
  ------------------------------------------------------------------------------
     1 OT DIIS     0.80E-01    0.0     0.12135524       -15.3602893572 -1.54E+01
     2 OT DIIS     0.80E-01    0.0     0.09284596       -15.4705638648 -1.10E-01
     3 OT DIIS     0.80E-01    0.0     0.07016361       -15.5067428020 -3.62E-02
     4 OT DIIS     0.80E-01    0.0     0.03531601       -15.5381431547 -3.14E-02
     5 OT DIIS     0.80E-01    0.0     0.00809927       -15.5458800593 -7.74E-03
     6 OT DIIS     0.80E-01    0.0     0.00552889       -15.5465975108 -7.17E-04
     7 OT DIIS     0.80E-01    0.0     0.00427300       -15.5467793499 -1.82E-04
     8 OT DIIS     0.80E-01    0.0     0.00093865       -15.5468914174 -1.12E-04
     9 OT DIIS     0.80E-01    0.0     0.00060831       -15.5468999194 -8.50E-06
    10 OT DIIS     0.80E-01    0.0     0.00033631       -15.5469035192 -3.60E-06
    11 OT DIIS     0.80E-01    0.0     0.00019726       -15.5469056379 -2.12E-06
    12 OT DIIS     0.80E-01    0.0     0.00015274       -15.5469060725 -4.35E-07
    13 OT DIIS     0.80E-01    0.0     0.00008060       -15.5469064290 -3.57E-07
    14 OT DIIS     0.80E-01    0.0     0.00004716       -15.5469064865 -5.75E-08
    15 OT DIIS     0.80E-01    0.0     0.00003494       -15.5469065173 -3.08E-08
    16 OT DIIS     0.80E-01    0.0     0.00002224       -15.5469065216 -4.23E-09
    17 OT DIIS     0.80E-01    0.0     0.00000596       -15.5469065265 -4.94E-09
    18 OT DIIS     0.80E-01    0.0     0.00000371       -15.5469065268 -2.62E-10
    19 OT DIIS     0.80E-01    0.0     0.00000176       -15.5469065269 -1.18E-10
    20 OT DIIS     0.80E-01    0.0     0.00000148       -15.5469065269 -2.54E-11
 Moving file HCN-TS-RESTART.wfn into file HCN-TS-RESTART.wfn.bak-1.
 Writing RESTART 1_1_20 to HCN-TS-RESTART.wfn
    21 OT DIIS     0.80E-01    0.0     0.00000071       -15.5469065269 -1.21E-11

  *** SCF run converged in    21 steps ***


  Electronic density on regular grids:         -9.9977735776        0.0022264224
  Core density on regular grids:               10.0335901313        0.0335901313
  Total charge density on r-space grids:        0.0358165537
  Total charge density g-space grids:           0.0358165537

  Overlap energy of the core charge distribution:               0.00000004702532
  Self energy of the core charge distribution:                -38.73701161091151
  Core Hamiltonian energy:                                     10.53592849261955
  Hartree energy:                                              16.70400112246323
  Exchange-correlation energy:                                 -4.04982457813554

  Total energy:                                               -15.54690652693895
 Moving file HCN-TS-RESTART.wfn into file HCN-TS-RESTART.wfn.bak-1.
 Writing RESTART 1_1_21 to HCN-TS-RESTART.wfn

  outer SCF iter =    1 RMS gradient =   0.71E-06 energy =        -15.5469065269
  outer SCF loop converged in   1 iterations or   21 steps


 !-----------------------------------------------------------------------------!
                     Mulliken Population Analysis

 #  Atom  Element  Kind  Atomic population                           Net charge
       1     N        1          5.131893                             -0.131893
       2     C        2          4.132639                             -0.132639
       3     H        3          0.735468                              0.264532
 # Total charge                             10.000000                 -0.000000

 !-----------------------------------------------------------------------------!

 !-----------------------------------------------------------------------------!
                           Hirshfeld Charges

  #Atom  Element  Kind  Ref Charge     Population                    Net charge
      1       N      1       5.000          5.438                        -0.438
      2       C      2       4.000          4.020                        -0.020
      3       H      3       1.000          0.505                         0.495

  Total Charge                                                            0.037
 !-----------------------------------------------------------------------------!

 ENERGY| Total FORCE_EVAL ( QS ) energy [hartree]            -15.546906526944156
 DIMER| Correcting gradients for Translation with standard method

 ROT| Rotational analysis information
 ROT| Principal axes and moments of inertia [a.u.]
 ROT|                           1                   2                   3
 ROT| Eigenvalues      2.95069167875E+00   1.06772430814E+01   1.36279347602E+01
 ROT|      x             -0.107661270355     -0.994187633631      0.000000000000
 ROT|      y              0.994187633631     -0.107661270355      0.000000000000
 ROT|      z             -0.000000000000      0.000000000000      1.000000000000
 ROT| Number of rotovibrational vectors                                        6

 *******************************************************************************
 ***                   2PNT TRANSLATIONAL LINE SEARCH INFO                   ***
 ***                                                                         ***
 ***   LOCAL CURVATURE =  -27.036483                                         ***
 ***   DX (EVALUATED)=    1.592494          DX (THRESHOLD)=    0.250000      ***
 ***   DX (FITTED   )=    1.003067          DX (ACCEPTED )=    0.250000      ***
 *******************************************************************************

 Parameters for the always stable predictor-corrector (ASPC) method:

  ASPC order: 2

  B(1) =   2.800000
  B(2) =  -2.800000
  B(3) =   1.200000
  B(4) =  -0.200000

 Extrapolation method: ASPC

 Number of electrons:                                                         10
 Number of occupied orbitals:                                                  5
 Number of molecular orbitals:                                                 5

 Number of orbital functions:                                                 31
 Number of independent orbital functions:                                     31


 SCF WAVEFUNCTION OPTIMIZATION

  ----------------------------------- OT ---------------------------------------
  Minimizer      : DIIS                : direct inversion
                                         in the iterative subspace
                                         using   7 DIIS vectors
                                         safer DIIS on
  Preconditioner : FULL_SINGLE_INVERSE : inversion of 
                                         H + eS - 2*(Sc)(c^T*H*c+const)(Sc)^T
  Precond_solver : DEFAULT
  stepsize       :    0.08000000                  energy_gap     :    0.08000000
  eps_taylor     :   0.10000E-15                  max_taylor     :             4
  ----------------------------------- OT ---------------------------------------

  Step     Update method      Time    Convergence         Total energy    Change
  ------------------------------------------------------------------------------
     1 OT DIIS     0.80E-01    0.0     0.27268029       -14.8994211243 -1.49E+01
     2 OT DIIS     0.80E-01    0.0     0.26492299       -15.3630151423 -4.64E-01
     3 OT DIIS     0.80E-01    0.0     0.12093840       -15.5650893527 -2.02E-01
     4 OT DIIS     0.80E-01    0.0     0.06101537       -15.6602540787 -9.52E-02
     5 OT DIIS     0.80E-01    0.0     0.02874424       -15.6762688758 -1.60E-02
     6 OT DIIS     0.80E-01    0.0     0.02076882       -15.6831582996 -6.89E-03
     7 OT DIIS     0.80E-01    0.0     0.00894165       -15.6866879663 -3.53E-03
     8 OT DIIS     0.80E-01    0.0     0.00296340       -15.6871763917 -4.88E-04
     9 OT DIIS     0.80E-01    0.0     0.00118125       -15.6873026421 -1.26E-04
    10 OT DIIS     0.80E-01    0.0     0.00058769       -15.6873249977 -2.24E-05
    11 OT DIIS     0.80E-01    0.0     0.00031522       -15.6873306350 -5.64E-06
    12 OT DIIS     0.80E-01    0.0     0.00022253       -15.6873310142 -3.79E-07
    13 OT DIIS     0.80E-01    0.0     0.00008911       -15.6873313817 -3.68E-07
    14 OT DIIS     0.80E-01    0.0     0.00004188       -15.6873315196 -1.38E-07
    15 OT DIIS     0.80E-01    0.0     0.00001926       -15.6873315361 -1.65E-08
    16 OT DIIS     0.80E-01    0.0     0.00001069       -15.6873315398 -3.75E-09
    17 OT DIIS     0.80E-01    0.0     0.00000496       -15.6873315417 -1.84E-09
    18 OT DIIS     0.80E-01    0.0     0.00000268       -15.6873315421 -3.65E-10
    19 OT DIIS     0.80E-01    0.0     0.00000131       -15.6873315422 -1.28E-10
    20 OT DIIS     0.80E-01    0.0     0.00000108       -15.6873315422 -2.48E-11
 Moving file HCN-TS-RESTART.wfn into file HCN-TS-RESTART.wfn.bak-1.
 Writing RESTART 1_1_20 to HCN-TS-RESTART.wfn
    21 OT DIIS     0.80E-01    0.0     0.00000053       -15.6873315422 -3.78E-12

  *** SCF run converged in    21 steps ***


  Electronic density on regular grids:         -9.9969638769        0.0030361231
  Core density on regular grids:               10.0139301268        0.0139301268
  Total charge density on r-space grids:        0.0169662499
  Total charge density g-space grids:           0.0169662499

  Overlap energy of the core charge distribution:               0.00000218010321
  Self energy of the core charge distribution:                -38.73701161091151
  Core Hamiltonian energy:                                     11.02398617735762
  Hartree energy:                                              16.27238626089983
  Exchange-correlation energy:                                 -4.24669454965601

  Total energy:                                               -15.68733154220685
 Moving file HCN-TS-RESTART.wfn into file HCN-TS-RESTART.wfn.bak-1.
 Writing RESTART 1_1_21 to HCN-TS-RESTART.wfn

  outer SCF iter =    1 RMS gradient =   0.53E-06 energy =        -15.6873315422
  outer SCF loop converged in   1 iterations or   21 steps


 !-----------------------------------------------------------------------------!
                     Mulliken Population Analysis

 #  Atom  Element  Kind  Atomic population                           Net charge
       1     N        1          4.860816                              0.139184
       2     C        2          4.384809                             -0.384809
       3     H        3          0.754375                              0.245625
 # Total charge                             10.000000                 -0.000000

 !-----------------------------------------------------------------------------!

 !-----------------------------------------------------------------------------!
                           Hirshfeld Charges

  #Atom  Element  Kind  Ref Charge     Population                    Net charge
      1       N      1       5.000          5.306                        -0.306
      2       C      2       4.000          4.242                        -0.242
      3       H      3       1.000          0.438                         0.562

  Total Charge                                                            0.013
 !-----------------------------------------------------------------------------!

 ENERGY| Total FORCE_EVAL ( QS ) energy [hartree]            -15.687331542209620
 DIMER| Correcting gradients for Translation with standard method

 ROT| Rotational analysis information
 ROT| Principal axes and moments of inertia [a.u.]
 ROT|                           1                   2                   3
 ROT| Eigenvalues      2.63529341932E+00   4.18594601257E+00   6.82123943190E+00
 ROT|      x              0.361308216517     -0.932446444938      0.000000000000
 ROT|      y              0.932446444938      0.361308216517      0.000000000000
 ROT|      z             -0.000000000000      0.000000000000      1.000000000000
 ROT| Number of rotovibrational vectors                                        6

 OPT| **************************************************************************
 OPT| Step number                                                              1
 OPT| Optimization method                                                     SD
 OPT| Total energy [hartree]                                       -0.5849130307
 OPT| Effective energy change [hartree]                            -2.1774066293
 OPT| Decrease in energy                                                     YES
 OPT| Used time [s]                                                        0.346
 OPT|
 OPT| Maximum step size                                             0.1813734070
 OPT| Convergence limit for maximum step size                       0.0030000000
 OPT| Maximum step size is converged                                          NO
 OPT|
 OPT| RMS step size                                                 0.0833333333
 OPT| Convergence limit for RMS step size                           0.0015000000
 OPT| RMS step size is converged                                              NO
 OPT|
 OPT| Maximum gradient                                              1.1553439585
 OPT| Convergence limit for maximum gradient                        0.0004500000
 OPT| Maximum gradient is converged                                           NO
 OPT|
 OPT| RMS gradient                                                  0.5308311995
 OPT| Convergence limit for RMS gradient                            0.0003000000
 OPT| RMS gradient is converged                                               NO
 OPT| **************************************************************************
 OPT| Estimated peak process memory after this step [MiB]                    253

 *** MAXIMUM NUMBER OF OPTIMIZATION STEPS REACHED ***
 ***        EXITING GEOMETRY OPTIMIZATION         ***

 -------------------------------------------------------------------------------
 -                                                                             -
 -                                DBCSR STATISTICS                             -
[...]
 flops    13 x     5 x     5               339300       0.0%    100.0%      0.0%     
 flops     5 x     5 x     5               447250       0.0%    100.0%      0.0%     
 flops    13 x    13 x     5               496860       0.0%    100.0%      0.0%     
 flops    26 x     5 x    13               594880       0.0%    100.0%      0.0%     
 flops    26 x     5 x     5               647400       0.0%    100.0%      0.0%     
 flops     5 x     5 x    13               815100       0.0%    100.0%      0.0%     
 flops    13 x     5 x    13              1399320       0.0%    100.0%      0.0%     
 flops inhomo. stacks                           0       0.0%      0.0%      0.0%
 flops total                         4.803810E+06       0.0%    100.0%      0.0%
 flops max/rank                      3.759670E+06       0.0%    100.0%      0.0%
 matmuls inhomo. stacks                         0       0.0%      0.0%      0.0%
 matmuls total                               5459       0.0%    100.0%      0.0%
 number of processed stacks                  4735       0.0%    100.0%      0.0%
 average stack size                                     0.0       1.2       0.0
 marketing flops                     5.104580E+06
 -------------------------------------------------------------------------------
 # multiplications                           1794
 max memory usage/rank               3.454980E+09
 # max total images/rank                        2
 # max 3D layers                                1
 # MPI messages exchanged                   71760
 MPI messages size (bytes):
  total size                        11.448480E+06
  min size                           0.000000E+00
  max size                           2.704000E+03
  average size                     159.538467E+00
 MPI breakdown and total messages size (bytes):
             size <=      128               55198                        0
       128 < size <=     8192               16562                 11448480
      8192 < size <=    32768                   0                        0
     32768 < size <=   131072                   0                        0
    131072 < size <=  4194304                   0                        0
   4194304 < size <= 16777216                   0                        0
  16777216 < size                               0                        0
 -------------------------------------------------------------------------------

 *** WARNING in dbcsr_mm.F:301 :: Using a non-square number of MPI ranks ***
 *** might lead to poor performance. Used ranks: 8 Suggested: 9 16       ***

 -------------------------------------------------------------------------------
 -                                                                             -
 -                      DBCSR MESSAGE PASSING PERFORMANCE                      -
 -                                                                             -
 -------------------------------------------------------------------------------
 ROUTINE             CALLS      AVE VOLUME [Bytes]
 MP_Bcast                9                     12.
 MP_Allreduce         8576                      8.
 MP_Alltoall          6754                    310.
 MP_ISend            25956                    232.
 MP_IRecv            25096                    144.
 -------------------------------------------------------------------------------

 -------------------------------------------------------------------------------
 -                                                                             -
 -                                GRID STATISTICS                              -
 -                                                                             -
 -------------------------------------------------------------------------------
 LP    KERNEL             BACKEND                              COUNT     PERCENT
 2     collocate ortho    CPU                                   5720      21.91%
 2     integrate ortho    CPU                                   5586      21.40%
 1     collocate ortho    CPU                                   3344      12.81%
 1     integrate ortho    CPU                                   3233      12.38%
 3     integrate ortho    CPU                                   2483       9.51%
 3     collocate ortho    CPU                                   2288       8.76%
 0     collocate ortho    CPU                                   1408       5.39%
 0     integrate ortho    CPU                                   1328       5.09%
 4     integrate ortho    CPU                                    379       1.45%
 4     collocate ortho    CPU                                    264       1.01%
 0     collocate general  CPU                                     30       0.11%
 5     integrate ortho    CPU                                     15       0.06%
 0     integrate general  CPU                                     15       0.06%
 1     integrate general  CPU                                     15       0.06%
 -------------------------------------------------------------------------------

 -------------------------------------------------------------------------------
 -                                                                             -
 -                          OFFLOAD MEMPOOL STATISTICS                         -
 -                                                                             -
 -------------------------------------------------------------------------------
 Memory consumption                Number of allocations  Used [MiB]  Size [MiB]
 Device                                                6           1           1
 Host                                                  6           1           1
 -------------------------------------------------------------------------------

 MEMORY| Estimated peak process memory [MiB]                                 253

 -------------------------------------------------------------------------------
 ----                             MULTIGRID INFO                            ----
 -------------------------------------------------------------------------------
 count for grid        1:          57607          cutoff [a.u.]           25.00
 count for grid        2:           3550          cutoff [a.u.]            8.33
 count for grid        3:            128          cutoff [a.u.]            2.78
 count for grid        4:              0          cutoff [a.u.]            0.93
 total gridlevel count  :          61285

 -------------------------------------------------------------------------------
 -                                                                             -
 -                         MESSAGE PASSING PERFORMANCE                         -
 -                                                                             -
 -------------------------------------------------------------------------------

 ROUTINE             CALLS      AVE VOLUME [Bytes]
 MP_Group                5
 MP_Bcast             1658                  11657.
 MP_Allreduce         5977                     64.
 MP_Sync                85
 MP_Alltoall           886                 338661.
 MP_SendRecv          2534                  32366.
 MP_ISendRecv         2534                  32366.
 MP_Wait              2534
 MP_comm_split          81
 -------------------------------------------------------------------------------


 -------------------------------------------------------------------------------
 -                                                                             -
 -                           R E F E R E N C E S                               -
 -                                                                             -
 -------------------------------------------------------------------------------
 
 CP2K version 2026.1, the CP2K developers group (2026).
 CP2K is freely available from https://www.cp2k.org/ .
 
 T. D. Kuehne, M. Iannuzzi, M. Del Ben, V. V. Rybkin, P. Seewald, F. Stein, T. 
 Laino, R. Z. Khaliullin, O. Schuett, F. Schiffmann, D. Golze, J. Wilhelm, S. 
 Chulkov, M. H. Bani-Hashemian, V. Weber, U. Borstnik, M. Taillefumier, A. S. 
 Jakobovits, A. Lazzaro, H. Pabst, T. Mueller, R. Schade, M. Guidon, S. 
 Andermatt, N. Holmberg, G. K. Schenter, A. Hehn, A. Bussy, F. Belleflamme, G. 
 Tabacchi, A. Gloess, M. Lass, I. Bethune, C. J. Mundy, C. Plessl, M. Watkins, 
 J. VandeVondele, M. Krack, J. Hutter.
 J. Chem. Phys. 152, 194103 (2020).
 CP2K: An electronic structure and molecular dynamics software package - 
 Quickstep: Efficient and accurate electronic structure calculations.
 https://doi.org/10.1063/5.0007045

 O. Schuett, P. Messmer, J. Hutter, J. VandeVondele.
 Electronic Structure Calculations on Graphics Processing Units, 173-190 (2016).
 GPU-Accelerated Sparse Matrix-Matrix Multiplication for Linear Scaling Density 
 Functional Theory.
 https://doi.org/10.1002/9781118670712.ch8

 A. Heinecke, G. Henry, M. Hutchinson, H. Pabst.
 Proceedings of Intl. Supercomputing Conference, 981-991 (2016).
 LIBXSMM: Accelerating Small Matrix Multiplications by Runtime Code Generation.
 https://doi.org/10.1109/SC.2016.83

 J. Hutter, M. Iannuzzi, F. Schiffmann, J. VandeVondele.
 WIREs Comput Mol Sci. 4, 15-25 (2014).
 CP2K: atomistic simulations of condensed matter systems.
 https://doi.org/10.1002/wcms.1159

 U. Borstnik, J. VandeVondele, V. Weber, J. Hutter.
 Parallel Comput. 40, 47-58 (2014).
 Sparse matrix multiplication: The distributed block-compressed sparse row 
 library.
 https://doi.org/10.1016/j.parco.2014.03.012

 A. Marek, V. Blum, R. Johanni, V. Havu, B. Lang, T. Auckenthaler, A. Heinecke, 
 H. Bungartz, H. Lederer.
 J. Phys. Condens. Matter 26, 213201 (2014).
 The ELPA library: scalable parallel eigenvalue solutions for electronic 
 structure theory and computational science.
 https://doi.org/10.1088/0953-8984/26/21/213201

 T. D. Kühne, M. Krack, F. R. Mohamed, M. Parrinello.
 Phys. Rev. Lett. 98, 066401 (2007).
 Efficient and accurate Car-Parrinello-like approach to Born-Oppenheimer 
 molecular dynamics.
 https://doi.org/10.1103/PhysRevLett.98.066401

 J. VandeVondele, M. Krack, F. Mohamed, M. Parrinello, T. Chassaing, J. Hutter.
 Comput. Phys. Commun. 167, 103-128 (2005).
 QUICKSTEP: Fast and accurate density functional calculations using a mixed 
 Gaussian and plane waves approach.
 https://doi.org/10.1016/j.cpc.2004.12.014

 M. Krack.
 Theor. Chem. Acc. 114, 145-152 (2005).
 Pseudopotentials for H to Kr optimized for gradient-corrected 
 exchange-correlation functionals.
 https://doi.org/10.1007/s00214-005-0655-y

 M. Frigo, S. G. Johnson.
 Proc. IEEE 93, 216-231 (2005).
 The design and implementation of FFTW3.
 https://doi.org/10.1109/JPROC.2004.840301

 J. Kolafa.
 J. Comput. Chem. 25, 335-342 (2004).
 Time-reversible always stable predictor-corrector method for molecular dynamics 
 of polarizable molecules.
 https://doi.org/10.1002/jcc.10385

 J. VandeVondele, J. Hutter.
 J. Chem. Phys. 118, 4365-4369 (2003).
 An efficient orbital transformation method for electronic structure 
 calculations.
 https://doi.org/10.1063/1.1543154

 G. Henkelman, H. Jonsson.
 J. Chem. Phys. 111, 7010-7022 (1999).
 A dimer method for finding saddle points on high dimensional potential surfaces 
 using only first derivatives.
 https://doi.org/10.1063/1.480097

 G. J. Martyna, M. E. Tuckerman.
 J. Chem. Phys. 110, 2810-2821 (1999).
 A reciprocal space based method for treating long range interactions in ab 
 initio and force-field-based calculations in clusters.
 https://doi.org/10.1063/1.477923

 C. Hartwigsen, S. Goedecker, J. Hutter.
 Phys. Rev. B 58, 3641-3662 (1998).
 Relativistic separable dual-space Gaussian pseudopotentials from H to Rn.
 https://doi.org/10.1103/PhysRevB.58.3641

 G. Lippert, J. Hutter, M. Parrinello.
 Mol. Phys. 92, 477-487 (1997).
 A hybrid Gaussian and plane wave density functional scheme.
 https://doi.org/10.1080/002689797170220

 S. Goedecker, M. Teter, J. Hutter.
 Phys. Rev. B 54, 1703-1710 (1996).
 Separable dual-space Gaussian pseudopotentials.
 https://doi.org/10.1103/PhysRevB.54.1703


 -------------------------------------------------------------------------------
 -                                                                             -
 -                                T I M I N G                                  -
 -                                                                             -
 -------------------------------------------------------------------------------
 SUBROUTINE                       CALLS  ASD         SELF TIME        TOTAL TIME
                                MAXIMUM       AVERAGE  MAXIMUM  AVERAGE  MAXIMUM
 CP2K                                 1  1.0    0.004    0.004    0.754    0.754
 cp_geo_opt                           1  2.0    0.009    0.009    0.712    0.712
 geoopt_cg                            2  5.5    0.000    0.000    0.703    0.705
 cp_cg_main                           2  6.5    0.002    0.003    0.703    0.705
 cp_eval_at                           5  8.2    0.000    0.000    0.699    0.702
 cp_eval_at_ts                        5  9.2    0.000    0.000    0.699    0.702
 cp_eval_at_ts_low                    5 10.2    0.000    0.000    0.692    0.692
 qs_forces                            5 11.2    0.000    0.000    0.692    0.692
 qs_energies                          5 12.2    0.000    0.000    0.673    0.673
 scf_env_do_scf                       5 13.2    0.000    0.000    0.644    0.644
 scf_env_do_scf_inner_loop           83 12.7    0.001    0.002    0.606    0.610
 cg_linmin                            2  7.5    0.000    0.000    0.387    0.387
 qs_scf_new_mos                      83 13.7    0.000    0.000    0.356    0.357
 qs_scf_loop_do_ot                   83 14.7    0.000    0.000    0.356    0.357
 tslmin_2pnt                          1  6.0    0.000    0.000    0.346    0.346
 ot_scf_mini                         83 15.7    0.000    0.000    0.341    0.341
 dbcsr_multiply_generic            1794 18.6    0.015    0.016    0.324    0.333
 ot_mini                             83 16.7    0.000    0.000    0.202    0.202
 qs_ot_get_derivative                83 17.7    0.000    0.000    0.175    0.176
 rebuild_ks_matrix                   88 14.6    0.000    0.000    0.153    0.153
 qs_ks_build_kohn_sham_matrix        88 15.6    0.003    0.003    0.152    0.153
 qs_ks_update_qs_env                 88 13.8    0.000    0.000    0.136    0.137
 make_m2s                          3588 19.6    0.009    0.009    0.133    0.136
 qs_ot_get_derivative_diag           70 18.1    0.000    0.000    0.122    0.122
 qs_ot_get_p                         88 16.7    0.000    0.000    0.102    0.102
 multiply_cannon                   1794 19.6    0.023    0.024    0.092    0.096
 qs_rho_update_rho_low               88 13.9    0.000    0.000    0.092    0.093
 calculate_rho_elec                  88 14.9    0.002    0.002    0.092    0.092
 make_images                       3588 20.6    0.018    0.019    0.090    0.092
 cp_rot_opt                           1  7.0    0.000    0.000    0.084    0.089
 density_rs2pw                       88 15.9    0.001    0.001    0.073    0.081
 fft_wrap_pw1pw2                    886 17.9    0.001    0.001    0.077    0.078
 sum_up_and_integrate                88 16.6    0.000    0.000    0.053    0.075
 integrate_v_rspace                  88 17.6    0.001    0.001    0.052    0.074
 qs_ot_p2m_diag                      73 17.2    0.000    0.001    0.073    0.074
 fft_wrap_pw1pw2_30                 357 18.5    0.003    0.003    0.060    0.061
 fft3d_ps                           886 19.9    0.033    0.034    0.056    0.057
 mp_sum_l                          8572 19.6    0.039    0.053    0.039    0.053
 cp_dbcsr_syevd                      73 18.2    0.001    0.001    0.045    0.045
 multiply_cannon_loop              1794 20.6    0.010    0.010    0.039    0.042
 transfer_rs2pw                     362 16.9    0.001    0.001    0.034    0.041
 potential_pw2rs                     88 18.6    0.001    0.001    0.041    0.041
 rotmin_2pnt                          1 11.0    0.000    0.000    0.041    0.041
 write_mo_set_to_restart             83 13.7    0.004    0.031    0.033    0.039
 transfer_rs2pw_30                   98 17.8    0.006    0.007    0.028    0.036
 dbcsr_make_images_dense           3154 20.8    0.006    0.006    0.025    0.034
 init_scf_loop                        5 14.2    0.000    0.000    0.034    0.034
 grid_integrate_task_list            88 18.6    0.010    0.032    0.010    0.032
 mp_sendrecv_dv                    2534 18.9    0.024    0.031    0.024    0.031
 write_mo_set_low                     8 15.5    0.000    0.000    0.027    0.030
 subspace_eigenvalues_ks_fm           8 16.5    0.000    0.000    0.027    0.030
 make_images_sizes                 3588 21.6    0.001    0.001    0.025    0.030
 grid_collocate_task_list            88 15.9    0.016    0.029    0.016    0.029
 mp_alltoall_i44                   3588 22.6    0.024    0.029    0.024    0.029
 dbcsr_make_dense_low              6205 21.6    0.009    0.009    0.016    0.029
 cp_fm_syevd                         81 19.0    0.000    0.000    0.028    0.028
 qs_ot_get_orbitals                  83 16.7    0.000    0.000    0.028    0.028
 dbcsr_create_new                 26205 21.2    0.020    0.020    0.027    0.028
 copy_dbcsr_to_fm                   132 18.4    0.001    0.001    0.026    0.027
 ot_diis_step                        83 17.7    0.001    0.001    0.025    0.025
 mp_sum_iv                          403 18.9    0.021    0.024    0.021    0.024
 make_images_data                  3588 21.6    0.007    0.010    0.018    0.024
 dbcsr_complete_redistribute        272 19.4    0.003    0.004    0.023    0.023
 create_qs_kind_set                   1  2.0    0.000    0.000    0.022    0.023
 read_qs_kind                         3  3.0    0.007    0.011    0.022    0.023
 mp_sum_d                          2656 16.4    0.015    0.022    0.015    0.022
 transfer_pw2rs                     362 19.6    0.000    0.000    0.020    0.021
 pw_poisson_solve                    88 16.6    0.000    0.000    0.019    0.019
 prepare_preconditioner               5 15.2    0.000    0.000    0.019    0.019
 make_preconditioner                  5 16.2    0.000    0.000    0.019    0.019
 mp_alltoall_z22v                   886 21.9    0.017    0.019    0.017    0.019
 cp_fm_redistribute_end              81 20.0    0.011    0.018    0.011    0.018
 qs_ks_update_qs_env_forces           5 12.2    0.000    0.000    0.018    0.018
 init_scf_run                         5 13.2    0.000    0.000    0.017    0.018
 scf_env_initial_rho_setup            5 14.2    0.000    0.000    0.017    0.017
 qs_vxc_create                       88 16.6    0.001    0.001    0.017    0.017
 xc_vxc_pw_create                    88 17.6    0.002    0.002    0.016    0.017
 make_full_single_inverse             5 17.2    0.000    0.000    0.017    0.017
 calculate_dm_sparse                 88 15.8    0.000    0.000    0.016    0.017
 make_dense_data                   6205 22.6    0.002    0.007    0.004    0.016
 fft_wrap_pw1pw2_10                 528 19.3    0.001    0.001    0.015    0.015
 apply_preconditioner_dbcsr          88 18.8    0.000    0.000    0.015    0.015
 -------------------------------------------------------------------------------

 The number of warnings for this run is : 1
 
 -------------------------------------------------------------------------------
  **** **** ******  **  PROGRAM ENDED AT                 2026-05-08 17:19:30.469
 ***** ** ***  *** **   PROGRAM RAN ON                                      n167
 **    ****   ******    PROGRAM RAN BY                                     lab07
 ***** **    ** ** **   PROGRAM PROCESS ID                                114565
  **** **  *******  **  PROGRAM STOPPED IN /DATA/lab07/hglee/cp2k_agent/test/lev
                                           el1
