       3
 i =        1, E =        -0.5849130307
  N         0.0029824272       -0.0089020177       -0.0000000000
  C         1.2363808812       -0.0870766555       -0.0000000000
  H         0.8455366916        1.2437786732       -0.0000000000
