       4
 i =        1, E =       -85.0268158471
 Ar         0.5294324493       -0.0000135404       -0.0000135404
 Ar         2.6581466077        2.6569535546       -0.0000005494
 Ar         2.6581466077       -0.0000008234        2.6569535546
 Ar        -0.0004102353        2.6569810501        2.6569813241
       4
 i =        2, E =       -85.0228358465
 Ar         0.5563956522        0.0002372218        0.0002372214
 Ar         2.6036195989        2.6227821316        0.0000109712
 Ar         2.6036195989        0.0000156478        2.6227821316
 Ar         0.0065422061        2.6223054469        2.6223007712
